
                                 *****************
                                 * O   R   C   A *
                                 *****************

                                            #,                                       
                                            ###                                      
                                            ####                                     
                                            #####                                    
                                            ######                                   
                                           ########,                                 
                                     ,,################,,,,,                         
                               ,,#################################,,                 
                          ,,##########################################,,             
                       ,#########################################, ''#####,          
                    ,#############################################,,   '####,        
                  ,##################################################,,,,####,       
                ,###########''''           ''''###############################       
              ,#####''   ,,,,##########,,,,          '''####'''          '####       
            ,##' ,,,,###########################,,,                        '##       
           ' ,,###''''                  '''############,,,                           
         ,,##''                                '''############,,,,        ,,,,,,###''
      ,#''                                            '''#######################'''  
     '                                                          ''''####''''         
             ,#######,   #######,   ,#######,      ##                                
            ,#'     '#,  ##    ##  ,#'     '#,    #''#        ,####,    ,#,          
            ##       ##  ##   ,#'  ##            #'  '#       #'       ,# #          
            ##       ##  #######   ##           ,######,      #####,      #          
            '#,     ,#'  ##    ##  '#,     ,#' ,#      #,     #,   #      #          
             '#######'   ##     ##  '#######'  #'      '#     '####' #    #          



                #########################################################
                #                        -***-                          #
                #          Department of theory and spectroscopy        #
                #                                                       #
                #                      Frank Neese                      #
                #                                                       #
                #     Directorship, Architecture, Infrastructure        #
                #                    SHARK, DRIVERS                     #
                #        Core code/Algorithms in most modules           #
                #                                                       #
                #        Max Planck Institute fuer Kohlenforschung      #
                #                Kaiser Wilhelm Platz 1                 #
                #                 D-45470 Muelheim/Ruhr                 #
                #                      Germany                          #
                #                                                       #
                #                  All rights reserved                  #
                #                        -***-                          #
                #########################################################


                         Program Version 6.1.0  -  RELEASE   -
                                (GIT: $679e74b7b5$)
                          ($2025-06-10 18:02:51 +0200$)


 With contributions from (in alphabetic order):
[Max-Planck-Institut fuer Kohlenforschung]                               
  Daniel Aravena         : Magnetic Suceptibility                        
  Michael Atanasov       : Ab Initio Ligand Field Theory (pilot matlab implementation)
  Alexander A. Auer      : GIAO ZORA, VPT2 properties, NMR spectrum      
  Ute Becker             : All parallelization in ORCA, NUMFREQ, NUMCALC 
  Giovanni Bistoni       : ED, misc. LED, open-shell LED, HFLD           
  Dmytro Bykov           : pre 5.0 version of the SCF Hessian            
  Marcos Casanova-Páez   : Triplet and SCS-CIS(D). UHF-(DLPNO)-IP/EA/STEOM-CCSD. UHF-CVS-IP/STEOM-CCSD   
  Vijay G. Chilkuri      : MRCI spin determinant printing, contributions to CSF-ICE 
  Pauline Colinet        : FMM embedding                                 
  Dipayan Datta          : RHF DLPNO-CCSD density                        
  Achintya Kumar Dutta   : EOM-CC, STEOM-CC                              
  Nicolas Foglia         : Exact transition moments, OPA infrastructure, MCD improvements    
  Dmitry Ganyushin       : Spin-Orbit,Spin-Spin,Magnetic field MRCI      
  Miquel Garcia-Rates    : C-PCM and meta-GGA Hessian, CCSD/C-PCM, Gaussian charge scheme 
  Tiago L. C. Gouveia    : GS-ROHF, GS-ROCIS                             
  Yang Guo               : DLPNO-NEVPT2, F12-NEVPT2, CIM, IAO-localization        
  Andreas Hansen         : Spin unrestricted coupled pair/coupled cluster methods 
  Ingolf Harden          : AUTO-CI MPn and infrastructure                
  Benjamin Helmich-Paris : MC-RPA, TRAH-(SCF,CASSCF), AVAS, COSX integrals, SCF dyn. polar., MC-PDFT, srDFT 
  Lee Huntington         : MR-EOM, pCC                                   
  Robert Izsak           : Overlap fitted RIJCOSX, COSX-SCS-MP3, EOM     
  Riya Kayal             : Wick's Theorem for AUTO-CI, AUTO-CI UHF-CCSDT 
  Emily Kempfer          : AUTO-CI RHF CISDT and CCSDT, approximate NEVPT4
  Christian Kollmar      : KDIIS, OOCD, Brueckner-CCSD(T), CCSD density, CASPT2, CASPT2-K, improved NEVPT2 
  Axel Koslowski         : Symmetry handling                             
  Simone Kossmann        : meta-GGA functionals, TD-DFT gradient, OOMP2, (MP2 Hessian; deprecated post 5.0) 
  Lucas Lang             : DCDCAS, Hyperfine gauge corrections, ICE-SOC+SSC
  Marvin Lechner         : AUTO-CI (C++ implementation), FIC-MRCC        
  Spencer Leger          : CASSCF response                               
  Dagmar Lenk            : GEPOL surface, SMD, ORCA-2-JSON               
  Dimitrios Liakos       : Extrapolation schemes; Compound Job, Property file
  Dimitrios Manganas     : Further ROCIS development; embedding schemes. LFT, Crystal Embedding 
  Dimitrios Pantazis     : SARC Basis sets                               
  Anastasios Papadopoulos: AUTO-CI, single reference methods and gradients 
  Taras Petrenko         : pre 6.0 DFT Hessian and TD-DFT gradient,  ECA, NRVS 
  Petra Pikulova         : Analytic Raman intensities                    
  Peter Pinski           : DLPNO-MP2, DLPNO-MP2 Gradient                 
  Shashank Vittal Rao    : ES-AILFT, MagRelax                            
  Christoph Reimann      : Effective Core Potentials                     
  Marius Retegan         : Local ZFS, SOC                                
  Christoph Riplinger    : Optimizer, TS searches, QM/MM, DLPNO-CCSD(T), (RO)-DLPNO pert. Triples 
  Michael Roemelt        : Original ROCIS implementation, recursive CI coupling coefficients
  Masaaki Saitow         : Open-shell DLPNO-CCSD energy and density      
  Barbara Sandhoefer     : DKH picture change effects                    
  Yorick L. A. Schmerwitz: GMF and freeze-and-release deltaSCF, NEB S-IDPP initial path                    
  Kantharuban Sivalingam : CASSCF convergence/infrastructure, NEVPT2, NEVPT3, NEVPT4(SD), FIC-MRCI and CEPA variants
  Bernardo de Souza      : ESD, SOC TD-DFT                               
  Georgi L. Stoychev     : AutoAux, RI-MP2 NMR, DLPNO-MP2 response, X2C  
  Van Anh Tran           : RI-MP2 g-tensors                              
  Willem Van den Heuvel  : Paramagnetic NMR                              
  Zikuan Wang            : NOTCH, Electric field optimization            
  Frank Wennmohs         : Technical directorship and infrastructure     
  Hang Xu                : AUTO-CI-Response properties                   
                                                                         
[FACCTs GmbH]                                                            
  Markus Bursch, Nicolas Foglia, Miquel Garcia-Rates, Ingolf Harden, Hagen Neugebauer, Anastasios Papadopoulos, 
  Christoph Riplinger, Bernardo de Souza, Georgi L. Stoychev                                                    
                                                                 
  APM, various basis sets, CI-OPT, improved COSX, DLPNO-Multilevel,           
  DOCKER, DRACO, updates on ESD, Fragmentator, GOAT, IRC, LR-CPCM, L-BFGS, MBIS, meta-GGA TD-DFT gradient, ML-optimized integration grids, 
  MM, NACMEs, nearIR, NEB, NEB-TS, NL-DFT gradient (VV10), 2- and 3-layer-ONIOM, interface openCOSMO-RS, QMMM,   
  Crystal-QMMM, RESP, rigid body optimization, SF, symmetry and pop. for TD-DFT, various functionals, SOLVATOR                                   
                                                                         
[Other institutions]                                                     
  V. Asgeirsson          : NEB                                           
  Christoph Bannwarth    : sTDA-DFT, sTD-DFT, PBEh-3c, B97-3c, D3        
  Giovanni Bistoni       : ETS/NOCV, ADLD/ADEX, COVALED                  
  Martin Brehm           : Molecular dynamics                            
  Ronald Cardenas        : ETS/NOCV                                      
  Martina Colucci        : COVALED                                       
  Sebastian Ehlert       : rSCAN, r2SCAN, r2SCAN-3c, D4, dhf basis sets  
  Marvin Friede          : D4 for Fr, Ra, Ac-Lr                          
  Lars Goerigk           : TD-DFT with DH, B97 family of functionals     
  Stefan Grimme          : VdW corrections, initial TS optimization, DFT functionals, gCP, sTDA/sTD-DF 
  Waldemar Hujo          : DFT-NL                                        
  H. Jonsson             : NEB                                           
  Holger Kruse           : gCP                                           
  Marcel Mueller         : wB97X-3c, vDZP basis set                      
  Hagen Neugebauer       : wr2SCAN, Native XTB                           
  Gianluca Regni         : ADLD/ADEX                                     
  Tobias Risthaus        : pre 6.0 range-separated hybrid DFT and stability analysis
  Lukas Wittmann         : regularized MP2, r2SCAN double-hybrids, wr2SCAN        
                                                                         
We gratefully acknowledge several colleagues who have allowed us to      
interface, adapt or use parts of their codes:                            
  Ed Valeev, F. Pavosevic, A. Kumar             : LibInt (2-el integral package), F12 methods 
  Garnet Chan, S. Sharma, J. Yang, R. Olivares  : DMRG                   
  Ulf Ekstrom                                   : XCFun DFT Library      
  Mihaly Kallay                                 : mrcc  (arbitrary order and MRCC methods)
  Frank Weinhold                                : gennbo (NPA and NBO analysis)           
  Simon Mueller                                 : openCOSMO-RS                            
  Christopher J. Cramer and Donald G. Truhlar   : smd solvation model                     
  S Lehtola, MJT Oliveira, MAL Marques          : LibXC Library                           
  Liviu Ungur et al                             : ANISO software                          


 Your calculation uses the libint2 library for the computation of 2-el integrals
 For citations please refer to: http://libint.valeyev.net

 Your ORCA version has been built with support for libXC version: 7.0.0
 For citations please refer to: https://libxc.gitlab.io

 This ORCA versions uses:
   CBLAS   interface :  Fast vector & matrix operations
   LAPACKE interface :  Fast linear algebra routines
   SCALAPACK package :  Parallel linear algebra routines
   Shared memory     :  Shared parallel matrices


  ***********************************
  * Starting time: Sun Aug 31 19:19:06 2025
  * Host name:     Tommasos-MacBook-Air-4.local
  * Process ID:    14069
  * Working dir.:  /Users/tommasocolombo/Desktop/ORCA calculations/TS-hydrolysis
  ***********************************



***************************************
The coordinates will be read from file: reactants.xyz
***************************************


Your calculation utilizes the atom-pairwise dispersion correction
based on EEQ partial charges (D4)


Warning: RI is on but no J-basis has been assigned. Assigning Def2/J (nothing to worry about!)
================================================================================

----- Orbital basis set information -----
Your calculation utilizes the basis: def2-SVP
   F. Weigend and R. Ahlrichs, Phys. Chem. Chem. Phys. 7, 3297 (2005).

----- AuxJ basis set information -----
Your calculation utilizes the auxiliary basis: def2/J
   H-Rn: F. Weigend, Phys. Chem. Chem. Phys. 8, 1057 (2006).
   Fr-Lr: K. Eichkorn, F. Weigend, O. Treutler, R. Ahlrichs; Theor. Chem. Acc. 97, 119 (1997).

================================================================================
                                        WARNINGS
                       Please study these warnings very carefully!
================================================================================

WARNING: Old DensityContainer found on disk!
         Will remove this file - 
         If you want to keep old densities, please start your calculation with a different basename. 


WARNING: Geometry Optimization
  ===> : Switching off AutoStart
         For restart on a previous wavefunction, please use MOREAD

================================================================================
                                       INPUT FILE
================================================================================
NAME = reactants.inp
|  1> !B3LYP DEF2-SVP OPT D4
|  2> * xyzfile 0 1 reactants.xyz                           ****END OF INPUT****
================================================================================

                       *****************************
                       * Geometry Optimization Run *
                       *****************************

Geometry optimization settings:
Update method            Update   .... BFGS
Choice of coordinates    CoordSys .... (2022) Redundant Internals
Initial Hessian          InHess   .... Almloef's Model
Max. no of cycles        MaxIter  .... 50

Convergence Tolerances:
Energy Change            TolE     ....  5.0000e-06 Eh
Max. Gradient            TolMAXG  ....  3.0000e-04 Eh/bohr
RMS Gradient             TolRMSG  ....  1.0000e-04 Eh/bohr
Max. Displacement        TolMAXD  ....  4.0000e-03 bohr
RMS Displacement         TolRMSD  ....  2.0000e-03 bohr
Strict Convergence                .... False

------------------------------------------------------------------------------
                        ORCA OPTIMIZATION COORDINATE SETUP
------------------------------------------------------------------------------

The optimization will be done in redundant internal coordinates (2022)
Making redundant internal coordinates   ...  (2022 redundants) done
Evaluating the initial hessian          ...  (Almloef) done
Evaluating the coordinates              ...  done
Calculating the B-matrix                .... done
Calculating the G-matrix                .... done
The number of degrees of freedom        ....   58

    -----------------------------------------------------------------
                    Redundant Internal Coordinates


    -----------------------------------------------------------------
         Definition                    Initial Value    Approx d2E/dq
    -----------------------------------------------------------------
      1. B(C   1,C   0)                  1.4864         0.438418   
      2. B(O   2,C   1)                  1.2221         1.036764   
      3. B(O   3,C   1)                  1.3154         0.735963   
      4. B(C   4,O   2)                  1.3776         0.585678   
      5. B(O   5,C   4)                  3.7971         0.010000   
      6. B(H   6,C   0)                  1.0910         0.358794   
      7. B(H   7,C   0)                  1.0845         0.367410   
      8. B(H   8,C   0)                  1.0920         0.357412   
      9. B(H   9,O   5)                  3.1674         0.010000   
     10. B(H   9,O   2)                  2.0791         0.010000   
     11. B(H   9,C   4)                  1.0694         0.388466   
     12. B(H  10,O   3)                  0.9535         0.532552   
     13. B(H  11,O   2)                  2.0960         0.010000   
     14. B(H  11,C   4)                  1.0757         0.379520   
     15. B(H  11,O   5)                  3.7339         0.010000   
     16. B(H  12,O   5)                  0.9438         0.551793   
     17. B(H  13,H  11)                  3.0404         0.010000   
     18. B(H  13,H   9)                  2.9505         0.010000   
     19. B(H  13,O   5)                  0.9440         0.551450   
     20. B(H  13,C   4)                  3.3299         0.010000   
     21. A(H   7,C   0,H   8)          110.0302         0.291416   
     22. A(H   6,C   0,H   7)          109.6980         0.291593   
     23. A(C   1,C   0,H   8)          110.1842         0.332586   
     24. A(C   1,C   0,H   6)          110.0694         0.332799   
     25. A(C   1,C   0,H   7)          109.1462         0.334112   
     26. A(H   6,C   0,H   8)          107.6986         0.290332   
     27. A(O   2,C   1,O   3)          122.0498         0.485386   
     28. A(C   0,C   1,O   2)          121.5940         0.444458   
     29. A(C   0,C   1,O   3)          116.3545         0.417930   
     30. A(C   1,O   2,C   4)          129.0921         0.465414   
     31. A(C   1,O   3,H  10)          112.9020         0.382828   
     32. A(H   9,C   4,H  11)          125.5460         0.296789   
     33. A(O   2,C   4,H  11)          116.8468         0.350475   
     34. A(O   2,C   4,H   9)          115.7761         0.351858   
     35. A(O   5,C   4,H  11)           78.4706         0.123973   
     36. A(O   5,C   4,H   9)           47.0913         0.124158   
     37. A(O   2,C   4,O   5)          159.2865         0.133242   
     38. A(H  12,O   5,H  13)          106.8902         0.328149   
     39. A(C   4,O   5,H  13)           53.9331         0.126616   
     40. A(C   4,O   5,H  12)          159.1619         0.126621   
     41. D(O   2,C   1,C   0,H   8)   -119.9806         0.014185   
     42. D(O   2,C   1,C   0,H   6)    121.3897         0.014185   
     43. D(O   3,C   1,C   0,H   7)   -179.5186         0.014185   
     44. D(O   2,C   1,C   0,H   7)      0.9450         0.014185   
     45. D(O   3,C   1,C   0,H   6)    -59.0739         0.014185   
     46. D(C   4,O   2,C   1,O   3)     -1.4081         0.107557   
     47. D(C   4,O   2,C   1,C   0)    178.1018         0.107557   
     48. D(H  10,O   3,C   1,O   2)      6.6587         0.040972   
     49. D(H  10,O   3,C   1,C   0)   -172.8754         0.040972   
     50. D(O   5,C   4,O   2,C   1)    145.6898         0.034320   
     51. D(H  11,C   4,O   2,C   1)     10.8437         0.034320   
     52. D(H   9,C   4,O   2,C   1)    176.3122         0.034320   
     53. D(H  12,O   5,C   4,H  11)     27.2478         0.010000   
     54. D(H  12,O   5,C   4,H   9)   -151.3150         0.010000   
     55. D(H  12,O   5,C   4,O   2)   -112.5405         0.010000   
     56. D(H  13,O   5,C   4,H  11)      1.8161         0.010000   
     57. D(H  13,O   5,C   4,H   9)   -176.7467         0.010000   
     58. D(H  13,O   5,C   4,O   2)   -137.9722         0.010000   
    -----------------------------------------------------------------

Number of atoms                         .... 14
Number of degrees of freedom            .... 58


         *************************************************************
         *                GEOMETRY OPTIMIZATION CYCLE   1            *
         *************************************************************
---------------------------------
CARTESIAN COORDINATES (ANGSTROEM)
---------------------------------
  C     29.003001  -15.642965    0.183593
  C     30.373478  -15.119107   -0.054822
  O     31.356563  -15.841642    0.016744
  O     30.466348  -13.841778   -0.355070
  C     32.680233  -15.532096   -0.206553
  O     36.457217  -15.599508    0.177906
  H     28.532639  -15.100804    1.005225
  H     29.063009  -16.697760    0.428567
  H     28.385028  -15.499992   -0.705349
  H     33.379428  -16.320136   -0.023120
  H     31.349664  -13.582165   -0.603033
  H     32.925148  -14.489410   -0.306346
  H     37.328287  -15.300709    0.384688
  H     35.924492  -14.829544    0.057569

----------------------------
CARTESIAN COORDINATES (A.U.)
----------------------------
  NO LB      ZA    FRAG     MASS         X           Y           Z
   0 C     6.0000    0    12.011   54.807728  -29.560920    0.346941
   1 C     6.0000    0    12.011   57.397555  -28.570971   -0.103599
   2 O     8.0000    0    15.999   59.255317  -29.936364    0.031641
   3 O     8.0000    0    15.999   57.573053  -26.157170   -0.670984
   4 C     6.0000    0    12.011   61.756689  -29.351407   -0.390329
   5 O     8.0000    0    15.999   68.894157  -29.478798    0.336194
   6 H     1.0000    0     1.008   53.918874  -28.536385    1.899600
   7 H     1.0000    0     1.008   54.921128  -31.554193    0.809874
   8 H     1.0000    0     1.008   53.639929  -29.290740   -1.332916
   9 H     1.0000    0     1.008   63.077977  -30.840588   -0.043690
  10 H     1.0000    0     1.008   59.242279  -25.666573   -1.139567
  11 H     1.0000    0     1.008   62.219512  -27.381017   -0.578911
  12 H     1.0000    0     1.008   70.540239  -28.914149    0.726956
  13 H     1.0000    0     1.008   67.887452  -28.023777    0.108790

--------------------------------
INTERNAL COORDINATES (ANGSTROEM)
--------------------------------
 C      0   0   0     0.000000000000     0.00000000     0.00000000
 C      1   0   0     1.486431299764     0.00000000     0.00000000
 O      2   1   0     1.222143427168   121.59397461     0.00000000
 O      2   1   3     1.315424392599   116.35449790   179.53636928
 C      3   2   1     1.377599770452   129.09211000   178.10178091
 O      5   3   2     3.797099998399   159.28651534   145.68978025
 H      1   2   3     1.090989172824   110.06944740   121.38973448
 H      1   2   3     1.084529809597   109.14617236     0.94500331
 H      1   2   3     1.092039302344   110.18420876   240.01940592
 H      5   3   2     1.069359617937   115.77614514   176.31221690
 H      4   2   1     0.953484406370   112.90200931   187.12462886
 H      5   3   2     1.075702235009   116.84677403    10.84373162
 H      6   5   3     0.943822943327   159.16191295   247.45949550
 H      6   5   3     0.943992332721    53.93305302   222.02778707

---------------------------
INTERNAL COORDINATES (A.U.)
---------------------------
 C      0   0   0     0.000000000000     0.00000000     0.00000000
 C      1   0   0     2.808948073442     0.00000000     0.00000000
 O      2   1   0     2.309516373720   121.59397461     0.00000000
 O      2   1   3     2.485791851892   116.35449790   179.53636928
 C      3   2   1     2.603286288307   129.09211000   178.10178091
 O      5   3   2     7.175479100087   159.28651534   145.68978025
 H      1   2   3     2.061670751710   110.06944740   121.38973448
 H      1   2   3     2.049464324212   109.14617236     0.94500331
 H      1   2   3     2.063655208908   110.18420876   240.01940592
 H      5   3   2     2.020796816575   115.77614514   176.31221690
 H      4   2   1     1.801824401003   112.90200931   187.12462886
 H      5   3   2     2.032782625814   116.84677403    10.84373162
 H      6   5   3     1.783566881799   159.16191295   247.45949550
 H      6   5   3     1.783886981364    53.93305302   222.02778707

---------------------
BASIS SET INFORMATION
---------------------
There are 3 groups of distinct atoms

 Group   1 Type C   : 7s4p1d contracted to 3s2p1d pattern {511/31/1}
 Group   2 Type O   : 7s4p1d contracted to 3s2p1d pattern {511/31/1}
 Group   3 Type H   : 4s1p contracted to 2s1p pattern {31/1}

Atom   0C    basis set group =>   1
Atom   1C    basis set group =>   1
Atom   2O    basis set group =>   2
Atom   3O    basis set group =>   2
Atom   4C    basis set group =>   1
Atom   5O    basis set group =>   2
Atom   6H    basis set group =>   3
Atom   7H    basis set group =>   3
Atom   8H    basis set group =>   3
Atom   9H    basis set group =>   3
Atom  10H    basis set group =>   3
Atom  11H    basis set group =>   3
Atom  12H    basis set group =>   3
Atom  13H    basis set group =>   3
---------------------------------
AUXILIARY/J BASIS SET INFORMATION
---------------------------------
There are 3 groups of distinct atoms

 Group   1 Type C   : 12s5p4d2f1g contracted to 6s4p3d1f1g pattern {711111/2111/211/2/1}
 Group   2 Type O   : 12s5p4d2f1g contracted to 6s4p3d1f1g pattern {711111/2111/211/2/1}
 Group   3 Type H   : 5s2p1d contracted to 3s1p1d pattern {311/2/1}

Atom   0C    basis set group =>   1
Atom   1C    basis set group =>   1
Atom   2O    basis set group =>   2
Atom   3O    basis set group =>   2
Atom   4C    basis set group =>   1
Atom   5O    basis set group =>   2
Atom   6H    basis set group =>   3
Atom   7H    basis set group =>   3
Atom   8H    basis set group =>   3
Atom   9H    basis set group =>   3
Atom  10H    basis set group =>   3
Atom  11H    basis set group =>   3
Atom  12H    basis set group =>   3
Atom  13H    basis set group =>   3
------------------------------------------------------------------------------
                             ORCA STARTUP CALCULATIONS
                           -- RI-GTO INTEGRALS CHOSEN --
------------------------------------------------------------------------------
------------------------------------------------------------------------------
                   ___                                                        
                  /   \      - P O W E R E D   B Y -                         
                 /     \                                                     
                 |  |  |   _    _      __       _____    __    __             
                 |  |  |  | |  | |    /  \     |  _  \  |  |  /  |          
                  \  \/   | |  | |   /    \    | | | |  |  | /  /          
                 / \  \   | |__| |  /  /\  \   | |_| |  |  |/  /          
                |  |  |   |  __  | /  /__\  \  |    /   |      \           
                |  |  |   | |  | | |   __   |  |    \   |  |\   \          
                \     /   | |  | | |  |  |  |  | |\  \  |  | \   \       
                 \___/    |_|  |_| |__|  |__|  |_| \__\ |__|  \__/        
                                                                              
                      - O R C A' S   B I G   F R I E N D -                    
                                      &                                       
                       - I N T E G R A L  F E E D E R -                       
                                                                              
 v1 FN, 2020, v2 2021, v3 2022-2024                                           
------------------------------------------------------------------------------


----------------------
SHARK INTEGRAL PACKAGE
----------------------

Number of atoms                             ...     14
Number of basis functions                   ...    124
Number of shells                            ...     60
Maximum angular momentum                    ...      2
Integral batch strategy                     ... SHARK/LIBINT Hybrid
RI-J (if used) integral strategy            ... SPLIT-RIJ (Revised 2003 algorithm where possible)
Printlevel                                  ...      1
Contraction scheme used                     ... SEGMENTED contraction
Prescreening option                         ... SCHWARTZ
   Thresh                                   ... 2.500e-11
   Tcut                                     ... 2.500e-12
   Tpresel                                  ... 2.500e-12 
Coulomb Range Separation                    ... NOT USED
Exchange Range Separation                   ... NOT USED
Multipole approximations                    ... NOT USED
Finite Nucleus Model                        ... NOT USED
CABS basis                                  ... NOT available
Auxiliary Coulomb fitting basis             ... AVAILABLE
   # of basis functions in Aux-J            ...    382
   # of shells in Aux-J                     ...    130
   Maximum angular momentum in Aux-J        ...      4
Auxiliary J/K fitting basis                 ... NOT available
Auxiliary Correlation fitting basis         ... NOT available
Auxiliary 'external' fitting basis          ... NOT available

Checking pre-screening integrals            ... done (  0.0 sec) Dimension = 60
   => SHARK Basis and OBASIS are compatible. Storing Pre-screening
Shell pair information
Shell pair cut-off parameter TPreSel        ...   2.5e-12
Total number of shell pairs                 ...      1830
Shell pairs after pre-screening             ...      1561
Total number of primitive shell pairs       ...      6430
Primitive shell pairs kept                  ...      4115
          la=0 lb=0:    519 shell pairs
          la=1 lb=0:    583 shell pairs
          la=1 lb=1:    175 shell pairs
          la=2 lb=0:    170 shell pairs
          la=2 lb=1:     97 shell pairs
          la=2 lb=2:     17 shell pairs

Checking whether 4 symmetric matrices of dimension 124 fit in memory
:Max Core in MB      =   4096.00
 MB in use           =      4.88
 MB left             =   4091.12
 MB needed           =      0.24
 Data fit in memory  = YES
Calculating RI/J V-Matrix + Cholesky decomp.... done (  0.0 sec)
Calculating Nuclear repulsion               ... done (  0.0 sec) ENN=    232.264535389010 Eh

Diagonalization of the overlap matrix:
Smallest eigenvalue                        ... 2.750e-03
Time for diagonalization                   ...    0.002 sec
Threshold for overlap eigenvalues          ... 1.000e-07
Number of eigenvalues below threshold      ... 0
Time for construction of square roots      ...    0.000 sec
Total time needed                          ...    0.002 sec

-------------------
DFT GRID GENERATION
-------------------

General Integration Accuracy     IntAcc      ... 4.388
Radial Grid Type                 RadialGrid  ... OptM3 with GC (2021)
Angular Grid (max. ang.)         AngularGrid ... 4 (Lebedev-302)
Angular grid pruning method      GridPruning ... 4 (adaptive)
Weight generation scheme         WeightScheme... mBecke (2022)
Basis function cutoff            BFCut       ... 1.0000e-11
Integration weight cutoff        WCut        ... 1.0000e-14
Partially contracted basis set               ... off
Rotationally invariant grid construction     ... off
Angular grids for H and He will be reduced by one unit

Total number of grid points                  ...    62524
Total number of batches                      ...      983
Average number of points per batch           ...       63
Average number of grid points per atom       ...     4466

--------------------
COSX GRID GENERATION
--------------------

GRIDX 1
-------
General Integration Accuracy     IntAcc      ... 3.816
Radial Grid Type                 RadialGrid  ... OptM3 with GC (2021)
Angular Grid (max. ang.)         AngularGrid ... 1 (Lebedev-50)
Angular grid pruning method      GridPruning ... 4 (adaptive)
Weight generation scheme         WeightScheme... mBecke (2022)
Basis function cutoff            BFCut       ... 1.0000e-11
Integration weight cutoff        WCut        ... 1.0000e-14
Partially contracted basis set               ... on
Rotationally invariant grid construction     ... off
Angular grids for H and He will be reduced by one unit

Total number of grid points                  ...     8058
Total number of batches                      ...       71
Average number of points per batch           ...      113
Average number of grid points per atom       ...      576
UseSFitting                                  ... on

GRIDX 2
-------
General Integration Accuracy     IntAcc      ... 4.020
Radial Grid Type                 RadialGrid  ... OptM3 with GC (2021)
Angular Grid (max. ang.)         AngularGrid ... 2 (Lebedev-110)
Angular grid pruning method      GridPruning ... 4 (adaptive)
Weight generation scheme         WeightScheme... mBecke (2022)
Basis function cutoff            BFCut       ... 1.0000e-11
Integration weight cutoff        WCut        ... 1.0000e-14
Partially contracted basis set               ... on
Rotationally invariant grid construction     ... off
Angular grids for H and He will be reduced by one unit

Total number of grid points                  ...    17261
Total number of batches                      ...      144
Average number of points per batch           ...      119
Average number of grid points per atom       ...     1233
UseSFitting                                  ... on

GRIDX 3
-------
General Integration Accuracy     IntAcc      ... 4.338
Radial Grid Type                 RadialGrid  ... OptM3 with GC (2021)
Angular Grid (max. ang.)         AngularGrid ... 3 (Lebedev-194)
Angular grid pruning method      GridPruning ... 4 (adaptive)
Weight generation scheme         WeightScheme... mBecke (2022)
Basis function cutoff            BFCut       ... 1.0000e-11
Integration weight cutoff        WCut        ... 1.0000e-14
Partially contracted basis set               ... on
Rotationally invariant grid construction     ... off
Angular grids for H and He will be reduced by one unit

Total number of grid points                  ...    37969
Total number of batches                      ...      304
Average number of points per batch           ...      124
Average number of grid points per atom       ...     2712
UseSFitting                                  ... on
Grids setup in   0.6 sec
Initializing property integral containers    ... done (  0.0 sec)

SHARK setup successfully completed in   0.7 seconds

Maximum memory used throughout the entire STARTUP-calculation: 25.0 MB
-------------------------------------------------------------------------------
                                 ORCA GUESS
                   Start orbitals & Density for SCF / CASSCF
-------------------------------------------------------------------------------

------------
SCF SETTINGS
------------
Hamiltonian:
 Density Functional     Method          .... DFT(GTOs)
 Exchange Functional    Exchange        .... B88
   X-Alpha parameter    XAlpha          ....  0.666667
   Becke's b parameter  XBeta           ....  0.004200
 Correlation Functional Correlation     .... LYP
 LDA part of GGA corr.  LDAOpt          .... VWN-5
 Gradients option       PostSCFGGA      .... off
 Hybrid DFT is turned on
   Fraction HF Exchange ScalHFX         ....  0.200000
   Scaling of DF-GGA-X  ScalDFX         ....  0.720000
   Scaling of DF-GGA-C  ScalDFC         ....  0.810000
   Scaling of DF-LDA-C  ScalLDAC        ....  1.000000
   Perturbative correction              ....  0.000000
   NL short-range parameter             ....  4.800000
 RI-approximation to the Coulomb term is turned on
   Number of AuxJ basis functions       .... 382
   RIJ-COSX (HFX calculated with COS-X)).... on


General Settings:
 Integral files         IntName         .... reactants
 Hartree-Fock type      HFTyp           .... RHF
 Total Charge           Charge          ....    0
 Multiplicity           Mult            ....    1
 Number of Electrons    NEL             ....   50
 Basis Dimension        Dim             ....  124
 Nuclear Repulsion      ENuc            ....    232.2645353890 Eh

Convergence Acceleration:
 AO-DIIS                CNVDIIS         .... on
   Start iteration      DIISMaxIt       ....    12
   Startup error        DIISStart       ....  0.200000
   # of expansion vecs  DIISMaxEq       ....     5
   Bias factor          DIISBfac        ....   1.050
   Max. coefficient     DIISMaxC        ....  10.000
 MO-DIIS                CNVKDIIS        .... off
 Trust-Rad. Augm. Hess. CNVTRAH         .... auto
   Auto Start mean grad. ratio tolernc. ....  1.125000
   Auto Start start iteration           ....    50
   Auto Start num. interpolation iter.  ....    10
   Max. Number of Micro iterations      ....    24
   Max. Number of Macro iterations      .... Maxiter - #DIIS iter
   Number of Davidson start vectors     ....     2
   Converg. threshold    (grad. norm)   ....   1.000e-05
   Grad. Scal. Fac. for Micro threshold ....   0.100
   Minimum threshold for Micro iter.    ....   1.000e-02
   NR start threshold (gradient norm)   ....   1.000e-04
   Initial trust radius                 ....   0.400
   Minimum AH scaling param. (alpha)    ....   1.000
   Maximum AH scaling param. (alpha)    .... 1000.000
   Quad. conv. algorithm                .... NR
   White noise on init. David. guess    .... on
   Maximum white noise                  ....   0.010
   Pseudo random numbers                .... off
   Inactive MOs                         .... canonical
   Orbital update algorithm             .... Taylor
   Preconditioner                       .... Diag
   Full preconditioner red. dimension   ....   250
 SOSCF                 CNVSOSCF           .... on
   Start iteration     SOSCFMaxIt         ....   150
   Startup grad/error  SOSCFStart         ....  0.003300
   Hessian update      SOSCFHessUp        .... L-BFGS
   Autom. constraints  SOSCFAutoConstrain .... off
 Level Shifting         CNVShift        .... on
   Level shift para.    LevelShift      ....    0.2500
   Turn off err/grad.   ShiftErr        ....    0.0010
 Zerner damping         CNVZerner       .... off
 Static damping         CNVDamp         .... on
   Fraction old density DampFac         ....    0.7000
   Max. Damping (<1)    DampMax         ....    0.9800
   Min. Damping (>=0)   DampMin         ....    0.0000
   Turn off err/grad.   DampErr         ....    0.1000

SCF Procedure:
 Maximum # iterations   MaxIter         ....   125
 SCF integral mode      SCFMode         .... Direct
   Integral package                     .... SHARK and LIBINT hybrid scheme
 Reset frequency        DirectResetFreq ....    20
 Integral Threshold     Thresh          ....  2.500e-11 Eh
 Primitive CutOff       TCut            ....  2.500e-12 Eh

Convergence Tolerance:
 Convergence Check Mode ConvCheckMode   .... Total+1el-Energy
 Convergence forced     ConvForced      .... 0
 Energy Change          TolE            ....  1.000e-08 Eh
 1-El. energy change                    ....  1.000e-05 Eh
 Orbital Gradient       TolG            ....  1.000e-05
 Orbital Rotation angle TolX            ....  1.000e-05
 DIIS Error             TolErr          ....  5.000e-07

------------------------------
INITIAL GUESS: MODEL POTENTIAL
------------------------------
Loading Hartree-Fock densities                     ... done
Calculating cut-offs                               ... done
Initializing the effective Hamiltonian             ... done
Setting up the integral package (SHARK)            ... done
Starting the Coulomb interaction                   ... done (   0.0 sec)
Making the grid                                    ... done (   0.1 sec)
Mapping shells                                     ... done
Starting the XC term evaluation                    ... done (   0.1 sec)
  promolecular density results
     # of electrons  =     49.995171598
     EX              =    -42.437198887
     EC              =     -1.695740610
     EX+EC           =    -44.132939497
Transforming the Hamiltonian                       ... done (   0.0 sec)
Diagonalizing the Hamiltonian                      ... done (   0.0 sec)
Back transforming the eigenvectors                 ... done (   0.0 sec)
Now organizing SCF variables                       ... done
                      ------------------
                      INITIAL GUESS DONE (   0.2 sec)
                      ------------------
             **** ENERGY FILE WAS UPDATED (reactants.en.tmp) ****
Finished Guess after   0.2 sec
Maximum memory used throughout the entire GUESS-calculation: 9.6 MB

-------------------------------------------------------------------------------------------
                                      ORCA LEAN-SCF
                              memory conserving SCF solver
-------------------------------------------------------------------------------------------

----------------------------------------D-I-I-S--------------------------------------------
Iteration    Energy (Eh)           Delta-E    RMSDP     MaxDP     DIISErr   Damp  Time(sec)
-------------------------------------------------------------------------------------------
               ***  Starting incremental Fock matrix formation  ***
    1    -343.9483760416849236     0.00e+00  4.77e-03  1.15e-01  3.10e-01  0.700   1.3
    2    -344.0873162419397886    -1.39e-01  3.16e-03  8.38e-02  1.32e-01  0.700   0.8
                               ***Turning on AO-DIIS***
    3    -344.1369517035151375    -4.96e-02  1.26e-03  2.85e-02  4.13e-02  0.700   0.8
    4    -344.1666338882248510    -2.97e-02  1.99e-03  3.75e-02  2.07e-02  0.000   0.7
    5    -344.2334264208786863    -6.68e-02  4.63e-04  7.85e-03  1.04e-02  0.000   0.7
    6    -344.2339985694837878    -5.72e-04  1.89e-04  4.16e-03  3.39e-03  0.000   0.7
                              *** Initializing SOSCF ***
---------------------------------------S-O-S-C-F--------------------------------------
Iteration    Energy (Eh)           Delta-E    RMSDP     MaxDP     MaxGrad    Time(sec)
--------------------------------------------------------------------------------------
    7    -344.2340506339692183    -5.21e-05  8.20e-05  1.77e-03  1.38e-03     0.7
               *** Restarting incremental Fock matrix formation ***
    8    -344.2341243126595600    -7.37e-05  6.88e-05  1.37e-03  3.23e-04     1.3
    9    -344.2341234256268763     8.87e-07  6.62e-05  1.83e-03  8.09e-04     1.1
   10    -344.2341269075674290    -3.48e-06  4.14e-05  7.79e-04  2.78e-04     1.0
   11    -344.2341272276347581    -3.20e-07  1.14e-05  2.39e-04  1.42e-04     1.0
   12    -344.2341275226958714    -2.95e-07  1.15e-05  2.22e-04  7.13e-05     0.9
   13    -344.2341275552845445    -3.26e-08  3.97e-06  8.15e-05  3.04e-05     1.0
   14    -344.2341275788276107    -2.35e-08  2.33e-06  6.11e-05  1.17e-05     0.8
   15    -344.2341275816355619    -2.81e-09  1.09e-06  1.75e-05  6.64e-06     0.8
                 **** Energy Check signals convergence ****

               *****************************************************
               *                     SUCCESS                       *
               *           SCF CONVERGED AFTER  15 CYCLES          *
               *****************************************************

Recomputing exchange energy using gridx3       ... done (    2.159 sec)
Old exchange energy                            :     -8.610223333 Eh
New exchange energy                            :     -8.610236344 Eh
Exchange energy change after final integration :     -0.000013011 Eh
Total energy after final integration           :   -344.234140595 Eh
             **** ENERGY FILE WAS UPDATED (reactants.en.tmp) ****

----------------
TOTAL SCF ENERGY
----------------

Total Energy       :       -344.23414059485327 Eh           -9367.08718 eV

Components:
Nuclear Repulsion  :        232.26453538900981 Eh            6320.23932 eV
Electronic Energy  :       -576.49866297256324 Eh          -15687.32615 eV
One Electron Energy:       -929.52206473466686 Eh          -25293.58128 eV
Two Electron Energy:        353.02340176210362 Eh            9606.25513 eV

Virial components:
Potential Energy   :       -686.01291283321075 Eh          -18667.36039 eV
Kinetic Energy     :        341.77877223835742 Eh            9300.27321 eV
Virial Ratio       :          2.00718408677173

DFT components:
N(Alpha)           :       25.000000847175 electrons
N(Beta)            :       25.000000847175 electrons
N(Total)           :       50.000001694351 electrons
E(X)               :      -34.266420999871 Eh       
E(C)               :       -2.008968926377 Eh       
E(XC)              :      -36.275389926248 Eh       

---------------
SCF CONVERGENCE
---------------

  Last Energy change         ...    2.8080e-09  Tolerance :   1.0000e-08
  Last MAX-Density change    ...    1.7465e-05  Tolerance :   1.0000e-07
  Last RMS-Density change    ...    1.0894e-06  Tolerance :   5.0000e-09
  Last DIIS Error            ...    1.3802e-03  Tolerance :   5.0000e-07
  Last Orbital Gradient      ...    6.6411e-06  Tolerance :   1.0000e-05
  Last Orbital Rotation      ...    2.1776e-05  Tolerance :   1.0000e-05


----------------
ORBITAL ENERGIES
----------------

  NO   OCC          E(Eh)            E(eV) 
   0   2.0000     -19.226386      -523.1766 
   1   2.0000     -19.186075      -522.0796 
   2   2.0000     -19.106715      -519.9202 
   3   2.0000     -10.297732      -280.2155 
   4   2.0000     -10.200210      -277.5618 
   5   2.0000     -10.175683      -276.8944 
   6   2.0000      -1.156730       -31.4762 
   7   2.0000      -1.061582       -28.8871 
   8   2.0000      -0.978226       -26.6189 
   9   2.0000      -0.782664       -21.2974 
  10   2.0000      -0.703898       -19.1540 
  11   2.0000      -0.631985       -17.1972 
  12   2.0000      -0.542978       -14.7752 
  13   2.0000      -0.518728       -14.1153 
  14   2.0000      -0.506573       -13.7846 
  15   2.0000      -0.503167       -13.6919 
  16   2.0000      -0.423053       -11.5119 
  17   2.0000      -0.415195       -11.2980 
  18   2.0000      -0.412677       -11.2295 
  19   2.0000      -0.401708       -10.9310 
  20   2.0000      -0.372324       -10.1315 
  21   2.0000      -0.354806        -9.6548 
  22   2.0000      -0.350295        -9.5320 
  23   2.0000      -0.283979        -7.7275 
  24   2.0000      -0.141327        -3.8457 
  25   0.0000       0.003003         0.0817 
  26   0.0000       0.042516         1.1569 
  27   0.0000       0.054392         1.4801 
  28   0.0000       0.075363         2.0507 
  29   0.0000       0.120893         3.2897 
  30   0.0000       0.122556         3.3349 
  31   0.0000       0.136980         3.7274 
  32   0.0000       0.163248         4.4422 
  33   0.0000       0.190673         5.1885 
  34   0.0000       0.211985         5.7684 
  35   0.0000       0.234522         6.3817 
*Only the first 10 virtual orbitals were printed.

                    ********************************
                    * MULLIKEN POPULATION ANALYSIS *
                    ********************************

-----------------------
MULLIKEN ATOMIC CHARGES
-----------------------
   0 C :    0.080989
   1 C :    0.036882
   2 O :   -0.065652
   3 O :   -0.158346
   4 C :   -0.180253
   5 O :   -0.278368
   6 H :    0.033002
   7 H :    0.032330
   8 H :    0.032819
   9 H :    0.037281
  10 H :    0.175239
  11 H :   -0.028204
  12 H :    0.139503
  13 H :    0.142779
Sum of atomic charges:   -0.0000000

--------------------------------
MULLIKEN REDUCED ORBITAL CHARGES
--------------------------------
  0 C s       :     2.915516  s :     2.915516
      pz      :     1.024084  p :     2.975250
      px      :     0.959469
      py      :     0.991697
      dz2     :     0.004788  d :     0.028245
      dxz     :     0.009208
      dyz     :     0.003756
      dx2y2   :     0.006697
      dxy     :     0.003796

  1 C s       :     3.041463  s :     3.041463
      pz      :     1.011957  p :     2.796031
      px      :     0.984745
      py      :     0.799329
      dz2     :     0.009578  d :     0.125625
      dxz     :     0.015938
      dyz     :     0.022636
      dx2y2   :     0.041526
      dxy     :     0.035947

  2 O s       :     3.638319  s :     3.638319
      pz      :     1.549416  p :     4.401239
      px      :     1.209396
      py      :     1.642428
      dz2     :     0.002238  d :     0.026094
      dxz     :     0.010349
      dyz     :     0.002679
      dx2y2   :     0.003596
      dxy     :     0.007233

  3 O s       :     3.645611  s :     3.645611
      pz      :     1.723689  p :     4.497842
      px      :     1.412496
      py      :     1.361656
      dz2     :     0.002020  d :     0.014893
      dxz     :     0.001112
      dyz     :     0.003190
      dx2y2   :     0.006680
      dxy     :     0.001890

  4 C s       :     3.079251  s :     3.079251
      pz      :     1.518995  p :     3.058604
      px      :     0.636511
      py      :     0.903099
      dz2     :     0.004194  d :     0.042398
      dxz     :     0.007228
      dyz     :     0.000619
      dx2y2   :     0.018277
      dxy     :     0.012080

  5 O s       :     3.656726  s :     3.656726
      pz      :     1.915690  p :     4.610474
      px      :     1.208744
      py      :     1.486040
      dz2     :     0.001760  d :     0.011168
      dxz     :     0.000443
      dyz     :     0.001299
      dx2y2   :     0.002788
      dxy     :     0.004878

  6 H s       :     0.942812  s :     0.942812
      pz      :     0.010668  p :     0.024186
      px      :     0.006308
      py      :     0.007210

  7 H s       :     0.943871  s :     0.943871
      pz      :     0.005413  p :     0.023800
      px      :     0.004125
      py      :     0.014262

  8 H s       :     0.943092  s :     0.943092
      pz      :     0.011354  p :     0.024089
      px      :     0.007565
      py      :     0.005169

  9 H s       :     0.937019  s :     0.937019
      pz      :     0.009056  p :     0.025700
      px      :     0.007207
      py      :     0.009437

 10 H s       :     0.751603  s :     0.751603
      pz      :     0.020007  p :     0.073158
      px      :     0.036066
      py      :     0.017085

 11 H s       :     1.000855  s :     1.000855
      pz      :     0.011035  p :     0.027350
      px      :     0.004379
      py      :     0.011936

 12 H s       :     0.787100  s :     0.787100
      pz      :     0.021701  p :     0.073398
      px      :     0.033285
      py      :     0.018412

 13 H s       :     0.784150  s :     0.784150
      pz      :     0.020911  p :     0.073071
      px      :     0.024595
      py      :     0.027565



                     *******************************
                     * LOEWDIN POPULATION ANALYSIS *
                     *******************************

----------------------
LOEWDIN ATOMIC CHARGES
----------------------
   0 C :   -0.052348
   1 C :    0.013767
   2 O :    0.128465
   3 O :   -0.005744
   4 C :   -0.260664
   5 O :   -0.124411
   6 H :    0.037907
   7 H :    0.041725
   8 H :    0.037330
   9 H :    0.003229
  10 H :    0.085674
  11 H :   -0.031576
  12 H :    0.063446
  13 H :    0.063198

-------------------------------
LOEWDIN REDUCED ORBITAL CHARGES
-------------------------------
  0 C s       :     2.827318  s :     2.827318
      pz      :     1.069428  p :     3.148800
      px      :     1.017798
      py      :     1.061573
      dz2     :     0.012273  d :     0.076230
      dxz     :     0.024669
      dyz     :     0.009154
      dx2y2   :     0.019343
      dxy     :     0.010791

  1 C s       :     2.804339  s :     2.804339
      pz      :     1.015499  p :     2.905463
      px      :     0.991417
      py      :     0.898547
      dz2     :     0.021052  d :     0.276430
      dxz     :     0.029272
      dyz     :     0.046962
      dx2y2   :     0.096759
      dxy     :     0.082386

  2 O s       :     3.347890  s :     3.347890
      pz      :     1.506826  p :     4.471826
      px      :     1.302290
      py      :     1.662710
      dz2     :     0.004018  d :     0.051818
      dxz     :     0.020340
      dyz     :     0.003149
      dx2y2   :     0.008698
      dxy     :     0.015613

  3 O s       :     3.382239  s :     3.382239
      pz      :     1.692185  p :     4.593545
      px      :     1.480608
      py      :     1.420753
      dz2     :     0.003773  d :     0.029959
      dxz     :     0.001767
      dyz     :     0.005923
      dx2y2   :     0.014427
      dxy     :     0.004069

  4 C s       :     2.889227  s :     2.889227
      pz      :     1.476517  p :     3.271730
      px      :     0.758561
      py      :     1.036652
      dz2     :     0.008646  d :     0.099707
      dxz     :     0.015314
      dyz     :     0.001319
      dx2y2   :     0.042388
      dxy     :     0.032040

  5 O s       :     3.400920  s :     3.400920
      pz      :     1.850064  p :     4.702367
      px      :     1.293860
      py      :     1.558443
      dz2     :     0.003632  d :     0.021124
      dxz     :     0.001060
      dyz     :     0.000819
      dx2y2   :     0.005461
      dxy     :     0.010152

  6 H s       :     0.894903  s :     0.894903
      pz      :     0.029248  p :     0.067190
      px      :     0.018463
      py      :     0.019480

  7 H s       :     0.891179  s :     0.891179
      pz      :     0.014371  p :     0.067096
      px      :     0.012029
      py      :     0.040696

  8 H s       :     0.895472  s :     0.895472
      pz      :     0.031795  p :     0.067198
      px      :     0.022569
      py      :     0.012835

  9 H s       :     0.912501  s :     0.912501
      pz      :     0.033289  p :     0.084269
      px      :     0.021919
      py      :     0.029061

 10 H s       :     0.726512  s :     0.726512
      pz      :     0.054116  p :     0.187814
      px      :     0.094642
      py      :     0.039056

 11 H s       :     0.947412  s :     0.947412
      pz      :     0.034416  p :     0.084164
      px      :     0.010892
      py      :     0.038855

 12 H s       :     0.750625  s :     0.750625
      pz      :     0.059894  p :     0.185929
      px      :     0.079316
      py      :     0.046719

 13 H s       :     0.750704  s :     0.750704
      pz      :     0.057773  p :     0.186098
      px      :     0.047697
      py      :     0.080628



                      *****************************
                      * MAYER POPULATION ANALYSIS *
                      *****************************

  NA   - Mulliken gross atomic population
  ZA   - Total nuclear charge
  QA   - Mulliken gross atomic charge
  VA   - Mayer's total valence
  BVA  - Mayer's bonded valence
  FA   - Mayer's free valence

  ATOM       NA         ZA         QA         VA         BVA        FA
  0 C      5.9190     6.0000     0.0810     3.9232     3.9232    -0.0000
  1 C      5.9631     6.0000     0.0369     4.2751     4.2751     0.0000
  2 O      8.0657     8.0000    -0.0657     2.5661     2.5661     0.0000
  3 O      8.1583     8.0000    -0.1583     2.2862     2.2862    -0.0000
  4 C      6.1803     6.0000    -0.1803     3.4572     3.4572    -0.0000
  5 O      8.2784     8.0000    -0.2784     2.0331     2.0331    -0.0000
  6 H      0.9670     1.0000     0.0330     0.9908     0.9908     0.0000
  7 H      0.9677     1.0000     0.0323     1.0082     1.0082     0.0000
  8 H      0.9672     1.0000     0.0328     0.9924     0.9924    -0.0000
  9 H      0.9627     1.0000     0.0373     1.0104     1.0104     0.0000
 10 H      0.8248     1.0000     0.1752     1.0467     1.0467     0.0000
 11 H      1.0282     1.0000    -0.0282     0.9959     0.9959     0.0000
 12 H      0.8605     1.0000     0.1395     1.0225     1.0225    -0.0000
 13 H      0.8572     1.0000     0.1428     1.0219     1.0219    -0.0000

  Mayer bond orders larger than 0.100000
B(  0-C ,  1-C ) :   1.0864 B(  0-C ,  6-H ) :   0.9416 B(  0-C ,  7-H ) :   0.9572 
B(  0-C ,  8-H ) :   0.9401 B(  1-C ,  2-O ) :   1.5014 B(  1-C ,  3-O ) :   1.2220 
B(  1-C ,  4-C ) :   0.3509 B(  2-O ,  4-C ) :   1.0037 B(  3-O , 10-H ) :   0.9533 
B(  4-C ,  9-H ) :   0.9859 B(  4-C , 11-H ) :   0.9572 B(  5-O , 12-H ) :   1.0130 
B(  5-O , 13-H ) :   1.0090 

-------
TIMINGS
-------

Total SCF time: 0 days 0 hours 0 min 16 sec 

Total time                  ....      16.759 sec
Sum of individual times     ....      15.979 sec  ( 95.3%)

SCF preparation             ....       0.039 sec  (  0.2%)
Fock matrix formation       ....      15.879 sec  ( 94.8%)
  Startup                   ....       0.002 sec  (  0.0% of F)
  Split-RI-J                ....       1.030 sec  (  6.5% of F)
  Chain of spheres X        ....      12.034 sec  ( 75.8% of F)
  XC integration            ....       3.536 sec  ( 22.3% of F)
    Basis function eval.    ....       1.565 sec  ( 44.2% of XC)
    Density eval.           ....       0.632 sec  ( 17.9% of XC)
    XC-Functional eval.     ....       0.227 sec  (  6.4% of XC)
    XC-Potential eval.      ....       0.821 sec  ( 23.2% of XC)
Diagonalization             ....       0.000 sec  (  0.0%)
Density matrix formation    ....       0.008 sec  (  0.0%)
Total Energy calculation    ....       0.004 sec  (  0.0%)
Population analysis         ....       0.005 sec  (  0.0%)
Orbital Transformation      ....       0.004 sec  (  0.0%)
Orbital Orthonormalization  ....       0.000 sec  (  0.0%)
DIIS solution               ....       0.023 sec  (  0.1%)
SOSCF solution              ....       0.017 sec  (  0.1%)
Finished LeanSCF after  16.8 sec

Maximum memory used throughout the entire LEANSCF-calculation: 12.7 MB


-------------------------------------------------------------------------------
                          DFT DISPERSION CORRECTION                            
                                                                               
                                DFTD4 V3.4.0                                   
-------------------------------------------------------------------------------
The B3LYP functional is recognized
Active option DFTDOPT                   ...         5   

-------------------------   ----------------
Dispersion correction           -0.011202507
-------------------------   ----------------


-------------------------   --------------------
FINAL SINGLE POINT ENERGY      -344.245343101728
-------------------------   --------------------

------------------------------------------------------------------------------
                         ORCA SCF GRADIENT CALCULATION
------------------------------------------------------------------------------

Nuc. rep. gradient        (SHARK) ... done (  0.0 sec)
HCore & Overlap gradient  (SHARK) ... done (  0.0 sec)
Split-RIJ-J gradient      (SHARK) ... done (  0.3 sec)
done (  7.2 sec)
XC gradient                       ... done (  1.7 sec)
Dispersion correction             ... done (  0.0 sec)

-------------------
DISPERSION GRADIENT
-------------------

   1   C   :   -0.000420421   -0.000113825    0.000065763
   2   C   :   -0.000119613    0.000029191    0.000001862
   3   O   :    0.000153967   -0.000086488    0.000002875
   4   O   :   -0.000050576    0.000319109   -0.000067882
   5   C   :    0.000253863   -0.000080706   -0.000049074
   6   O   :    0.000287651    0.000081063    0.000026480
   7   H   :   -0.000101656   -0.000005533    0.000046254
   8   H   :   -0.000091503   -0.000072397    0.000025463
   9   H   :   -0.000108894   -0.000021758   -0.000021103
  10   H   :    0.000032046   -0.000077272   -0.000000844
  11   H   :    0.000007135    0.000091492   -0.000028803
  12   H   :    0.000047344    0.000003922   -0.000010481
  13   H   :   -0.000036332   -0.000010897   -0.000009995
  14   H   :    0.000146989   -0.000055900    0.000019484

Difference to translation invariance:
           :   -0.0000000000    0.0000000000   -0.0000000000

Difference to rotation invariance:
           :    0.0000000000    0.0000000000   -0.0000000000

Norm of the Dispersion gradient    ...    0.0007730335
RMS gradient                       ...    0.0001192817
MAX gradient                       ...    0.0004204211

------------------
CARTESIAN GRADIENT
------------------

   1   C   :   -0.010790430   -0.003373564    0.002168662
   2   C   :    0.057347599   -0.013405894   -0.003481255
   3   O   :   -0.069966301    0.038650591   -0.003269131
   4   O   :    0.013929204   -0.026113548    0.002101432
   5   C   :    0.021225803    0.000867745    0.005580689
   6   O   :    0.010658202    0.031850407    0.002908317
   7   H   :    0.005531148   -0.003505268   -0.006415478
   8   H   :    0.000915020    0.008726180   -0.001940710
   9   H   :    0.006195182   -0.000298716    0.005986996
  10   H   :   -0.005058714    0.007916511   -0.003792417
  11   H   :   -0.015841916   -0.000559536    0.005311424
  12   H   :   -0.004652894   -0.009441546   -0.002211025
  13   H   :   -0.019584186   -0.010852081   -0.004888580
  14   H   :    0.010092282   -0.020461281    0.001941076

Difference to translation invariance:
           :   -0.0000000001   -0.0000000001    0.0000000000

Difference to rotation invariance:
           :    0.0000130553    0.0000972610   -0.0000077208

Norm of the Cartesian gradient     ...    0.1195769304
RMS gradient                       ...    0.0184511209
MAX gradient                       ...    0.0699663006

-------
TIMINGS
-------

Total SCF gradient time     ....        9.352 sec

Densities                   ....       0.000 sec  (  0.0%)
One electron gradient       ....       0.045 sec  (  0.5%)
RI-J Coulomb gradient       ....       0.312 sec  (  3.3%)
COSX gradient               ....       7.232 sec  ( 77.3%)
XC gradient                 ....       1.729 sec  ( 18.5%)

Maximum memory used throughout the entire SCFGRAD-calculation: 28.1 MB
------------------------------------------------------------------------------
                         ORCA GEOMETRY RELAXATION STEP
------------------------------------------------------------------------------

Reading the OPT-File                    .... done
Getting information on internals        .... done
Copying old internal coords+grads       .... done
Making the new internal coordinates     .... (2022 redundants) done
Validating the new internal coordinates .... (2022 redundants) done
Calculating the B-matrix                .... done
Calculating the G,G- and P matrices     .... done
Transforming gradient to internals      .... done
Projecting the internal gradient        .... done
Number of atoms                         ....  14
Number of internal coordinates          ....  58
Current Energy                          ....  -344.245343102 Eh
Current gradient norm                   ....     0.119576930 Eh/bohr
Maximum allowed component of the step   ....  0.300
Current trust radius                    ....  0.300
Evaluating the initial hessian          ....  (Almloef) done
Projecting the Hessian                  .... done
Forming the augmented Hessian           .... done
Diagonalizing the augmented Hessian     .... done
Last element of RFO vector              ....  0.983305224
Lowest eigenvalues of augmented Hessian:
 -0.010546116  0.010000000  0.010012370  0.010579335  0.014184624
Length of the computed step             ....  0.185053256
The final length of the internal step   ....  0.185053256
Converting the step to Cartesian space:
 Initial RMS(Int)=    0.0242986830
Transforming coordinates:
 Iter   0:  RMS(Cart)=    0.0459132919 RMS(Int)=    0.8240415528
 Iter   5:  RMS(Cart)=    0.0000000593 RMS(Int)=    0.0000000623
done
Storing new coordinates                 .... done

                                .--------------------.
          ----------------------|Geometry convergence|-------------------------
          Item                value                   Tolerance       Converged
          ---------------------------------------------------------------------
          RMS gradient        0.0113644530            0.0001000000      NO
          MAX gradient        0.0690780204            0.0003000000      NO
          RMS step            0.0242986830            0.0020000000      NO
          MAX step            0.0866145841            0.0040000000      NO
          -------------------------------------------------------------------------
          ........................................................
          Max(Bonds)      0.0349      Max(Angles)    1.39
          Max(Dihed)        4.96      Max(Improp)    0.00
          ---------------------------------------------------------------------

The optimization has not yet converged - more geometry cycles are needed


    ---------------------------------------------------------------------------
                         Redundant Internal Coordinates
                            (Angstroem and degrees)

        Definition                    Value    dE/dq     Step     New-Value
    ----------------------------------------------------------------------------
     1. B(C   1,C   0)                1.4864 -0.002285  0.0027    1.4891   
     2. B(O   2,C   1)                1.2221 -0.069078  0.0349    1.2570   
     3. B(O   3,C   1)                1.3154 -0.027728  0.0197    1.3351   
     4. B(C   4,O   2)                1.3776  0.009765 -0.0106    1.3670   
     5. B(O   5,C   4)                3.7971 -0.002171 -0.0011    3.7960   
     6. B(H   6,C   0)                1.0910 -0.008959  0.0128    1.1038   
     7. B(H   7,C   0)                1.0845 -0.008875  0.0124    1.0970   
     8. B(H   8,C   0)                1.0920 -0.008418  0.0121    1.1041   
     9. B(H   9,O   5)                3.1674  0.004321 -0.0122    3.1552   
    10. B(H   9,O   2)                2.0791  0.003143 -0.0111    2.0680   
    11. B(H   9,C   4)                1.0694 -0.010788  0.0131    1.0825   
    12. B(H  10,O   3)                0.9535 -0.016209  0.0158    0.9693   
    13. B(H  11,O   2)                2.0960 -0.000360  0.0031    2.0991   
    14. B(H  11,C   4)                1.0757 -0.008765  0.0134    1.0891   
    15. B(H  11,O   5)                3.7339 -0.004155 -0.0007    3.7332   
    16. B(H  12,O   5)                0.9438 -0.022581  0.0212    0.9651   
    17. B(H  13,H  11)                3.0404  0.005681 -0.0116    3.0289   
    18. B(H  13,H   9)                2.9505 -0.002759 -0.0030    2.9475   
    19. B(H  13,O   5)                0.9440 -0.019155  0.0210    0.9650   
    20. B(H  13,C   4)                3.3299 -0.000192 -0.0019    3.3281   
    21. A(H   7,C   0,H   8)          110.03  0.001668   -0.33    109.70   
    22. A(H   6,C   0,H   7)          109.70  0.001578   -0.26    109.44   
    23. A(C   1,C   0,H   8)          110.18 -0.001938    0.34    110.52   
    24. A(C   1,C   0,H   6)          110.07 -0.002150    0.39    110.46   
    25. A(C   1,C   0,H   7)          109.15 -0.001198    0.21    109.36   
    26. A(H   6,C   0,H   8)          107.70  0.002093   -0.36    107.34   
    27. A(O   2,C   1,O   3)          122.05  0.003408   -0.41    121.64   
    28. A(C   0,C   1,O   2)          121.59 -0.000149   -0.00    121.59   
    29. A(C   0,C   1,O   3)          116.35 -0.003252    0.41    116.77   
    30. A(C   1,O   2,C   4)          129.09 -0.003039    0.37    129.46   
    31. A(C   1,O   3,H  10)          112.90  0.006716   -0.98    111.92   
    32. A(H   9,C   4,H  11)          125.55  0.000097   -0.43    125.11   
    33. A(O   2,C   4,H  11)          116.85 -0.001628    0.15    117.00   
    34. A(O   2,C   4,H   9)          115.78  0.002609   -1.10    114.68   
    35. A(O   5,C   4,H  11)           78.47 -0.000656   -0.04     78.43   
    36. A(O   5,C   4,H   9)           47.09  0.000711   -0.29     46.80   
    37. A(O   2,C   4,O   5)          159.29  0.003769   -1.39    157.89   
    38. A(H  12,O   5,H  13)          106.89  0.005092   -0.99    105.90   
    39. A(C   4,O   5,H  13)           53.93 -0.003350    0.49     54.42   
    40. A(C   4,O   5,H  12)          159.16  0.001878   -0.49    158.67   
    41. D(O   2,C   1,C   0,H   8)   -119.98 -0.000386    0.43   -119.55   
    42. D(O   2,C   1,C   0,H   6)    121.39 -0.000438    0.42    121.81   
    43. D(O   3,C   1,C   0,H   7)   -179.52  0.000613   -0.60   -180.11   
    44. D(O   2,C   1,C   0,H   7)      0.95 -0.000300    0.37      1.31   
    45. D(O   3,C   1,C   0,H   6)    -59.07  0.000475   -0.54    -59.61   
    46. D(C   4,O   2,C   1,O   3)     -1.41 -0.002712    1.60      0.19   
    47. D(C   4,O   2,C   1,C   0)    178.10 -0.001779    0.58    178.68   
    48. D(H  10,O   3,C   1,O   2)      6.66 -0.000947    1.07      7.73   
    49. D(H  10,O   3,C   1,C   0)   -172.88 -0.001847    2.04   -170.84   
    50. D(O   5,C   4,O   2,C   1)    145.69 -0.000893    0.78    146.47   
    51. D(H  11,C   4,O   2,C   1)     10.84 -0.003732    4.96     15.81   
    52. D(H   9,C   4,O   2,C   1)    176.31  0.000472   -0.44    175.87   
    53. D(H  12,O   5,C   4,H  11)     27.25  0.001195   -2.66     24.59   
    54. D(H  12,O   5,C   4,H   9)   -151.32 -0.000691    1.81   -149.51   
    55. D(H  12,O   5,C   4,O   2)   -112.54 -0.000383    0.80   -111.74   
    56. D(H  13,O   5,C   4,H  11)      1.82  0.000920   -2.21     -0.40   
    57. D(H  13,O   5,C   4,H   9)   -176.75 -0.000966    2.25   -174.49   
    58. D(H  13,O   5,C   4,O   2)   -137.97 -0.000658    1.24   -136.73   
    ----------------------------------------------------------------------------

Geometry step timings:
Preparation and reading OPT file:      0.000 s ( 1.193 %)
Internal coordinates            :      0.001 s (20.978 %)
B/P matrices and projection     :      0.000 s (16.320 %)
Hessian update/contruction      :      0.000 s (16.436 %)
Making the step                 :      0.000 s (12.625 %)
Converting the step to Cartesian:      0.000 s ( 1.886 %)
Storing new data                :      0.000 s (14.319 %)
Checking convergence            :      0.000 s ( 1.848 %)
Final printing                  :      0.000 s (14.396 %)
Total time                      :      0.003 s

Time for energy+gradient        :     27.410 s
Time for complete geometry iter :     27.487 s

         *************************************************************
         *                GEOMETRY OPTIMIZATION CYCLE   2            *
         *************************************************************
---------------------------------
CARTESIAN COORDINATES (ANGSTROEM)
---------------------------------
  C     28.997799  -15.652621    0.197477
  C     30.358865  -15.106175   -0.060182
  O     31.381923  -15.834605   -0.006266
  O     30.436620  -13.812282   -0.379919
  C     32.691044  -15.512507   -0.234756
  O     36.463268  -15.628840    0.171632
  H     28.517861  -15.114600    1.033314
  H     29.074840  -16.718357    0.445636
  H     28.354164  -15.522688   -0.690209
  H     33.392109  -16.317112   -0.052342
  H     31.327549  -13.564080   -0.669990
  H     32.944289  -14.453059   -0.242010
  H     37.351959  -15.332807    0.403919
  H     35.932244  -14.827881    0.083697

----------------------------
CARTESIAN COORDINATES (A.U.)
----------------------------
  NO LB      ZA    FRAG     MASS         X           Y           Z
   0 C     6.0000    0    12.011   54.797898  -29.579168    0.373178
   1 C     6.0000    0    12.011   57.369940  -28.546534   -0.113728
   2 O     8.0000    0    15.999   59.303240  -29.923068   -0.011842
   3 O     8.0000    0    15.999   57.516876  -26.101430   -0.717943
   4 C     6.0000    0    12.011   61.777121  -29.314390   -0.443624
   5 O     8.0000    0    15.999   68.905591  -29.534227    0.324337
   6 H     1.0000    0     1.008   53.890947  -28.562455    1.952680
   7 H     1.0000    0     1.008   54.943486  -31.593117    0.842130
   8 H     1.0000    0     1.008   53.581604  -29.333630   -1.304307
   9 H     1.0000    0     1.008   63.101942  -30.834872   -0.098912
  10 H     1.0000    0     1.008   59.200489  -25.632397   -1.266097
  11 H     1.0000    0     1.008   62.255683  -27.312323   -0.457333
  12 H     1.0000    0     1.008   70.584973  -28.974807    0.763297
  13 H     1.0000    0     1.008   67.902101  -28.020634    0.158165

--------------------------------
INTERNAL COORDINATES (ANGSTROEM)
--------------------------------
 C      0   0   0     0.000000000000     0.00000000     0.00000000
 C      1   0   0     1.489124452465     0.00000000     0.00000000
 O      2   1   0     1.257046664410   121.58784879     0.00000000
 O      2   1   3     1.335079641471   116.76342320   178.57035771
 C      3   2   1     1.367388911139   129.45792061   178.68638590
 O      5   3   2     3.795834305052   157.86875790   146.46686990
 H      1   2   3     1.103825155605   110.46061298   121.81392100
 H      1   2   3     1.096955621470   109.35770562     1.31323238
 H      1   2   3     1.104144917225   110.51836101   240.44701401
 H      5   3   2     1.082661321280   114.62843474   175.88628219
 H      4   2   1     0.969278232025   111.92373812   189.16058021
 H      5   3   2     1.089319159722   116.92240711    15.79593889
 H      6   5   3     0.965072009516   158.66903683   248.24754125
 H      6   5   3     0.965015286592    54.40545678   223.26512611

---------------------------
INTERNAL COORDINATES (A.U.)
---------------------------
 C      0   0   0     0.000000000000     0.00000000     0.00000000
 C      1   0   0     2.814037394484     0.00000000     0.00000000
 O      2   1   0     2.375473933294   121.58784879     0.00000000
 O      2   1   3     2.522934889354   116.76342320   178.57035771
 C      3   2   1     2.583990560613   129.45792061   178.68638590
 O      5   3   2     7.173087286291   157.86875790   146.46686990
 H      1   2   3     2.085927243826   110.46061298   121.81392100
 H      1   2   3     2.072945705645   109.35770562     1.31323238
 H      1   2   3     2.086531505717   110.51836101   240.44701401
 H      5   3   2     2.045933393008   114.62843474   175.88628219
 H      4   2   1     1.831670406098   111.92373812   189.16058021
 H      5   3   2     2.058514884307   116.92240711    15.79593889
 H      6   5   3     1.823721797497   158.66903683   248.24754125
 H      6   5   3     1.823614606707    54.40545678   223.26512611

------------------------------------------------------------------------------
                   ___                                                        
                  /   \      - P O W E R E D   B Y -                         
                 /     \                                                     
                 |  |  |   _    _      __       _____    __    __             
                 |  |  |  | |  | |    /  \     |  _  \  |  |  /  |          
                  \  \/   | |  | |   /    \    | | | |  |  | /  /          
                 / \  \   | |__| |  /  /\  \   | |_| |  |  |/  /          
                |  |  |   |  __  | /  /__\  \  |    /   |      \           
                |  |  |   | |  | | |   __   |  |    \   |  |\   \          
                \     /   | |  | | |  |  |  |  | |\  \  |  | \   \       
                 \___/    |_|  |_| |__|  |__|  |_| \__\ |__|  \__/        
                                                                              
                      - O R C A' S   B I G   F R I E N D -                    
                                      &                                       
                       - I N T E G R A L  F E E D E R -                       
                                                                              
 v1 FN, 2020, v2 2021, v3 2022-2024                                           
------------------------------------------------------------------------------


----------------------
SHARK INTEGRAL PACKAGE
----------------------

Number of atoms                             ...     14
Number of basis functions                   ...    124
Number of shells                            ...     60
Maximum angular momentum                    ...      2
Integral batch strategy                     ... SHARK/LIBINT Hybrid
RI-J (if used) integral strategy            ... SPLIT-RIJ (Revised 2003 algorithm where possible)
Printlevel                                  ...      1
Contraction scheme used                     ... SEGMENTED contraction
Prescreening option                         ... SCHWARTZ
   Thresh                                   ... 2.500e-11
   Tcut                                     ... 2.500e-12
   Tpresel                                  ... 2.500e-12 
Coulomb Range Separation                    ... NOT USED
Exchange Range Separation                   ... NOT USED
Multipole approximations                    ... NOT USED
Finite Nucleus Model                        ... NOT USED
CABS basis                                  ... NOT available
Auxiliary Coulomb fitting basis             ... AVAILABLE
   # of basis functions in Aux-J            ...    382
   # of shells in Aux-J                     ...    130
   Maximum angular momentum in Aux-J        ...      4
Auxiliary J/K fitting basis                 ... NOT available
Auxiliary Correlation fitting basis         ... NOT available
Auxiliary 'external' fitting basis          ... NOT available

Checking pre-screening integrals            ... done (  0.0 sec) Dimension = 60
   => SHARK Basis and OBASIS are compatible. Storing Pre-screening
Shell pair information
Shell pair cut-off parameter TPreSel        ...   2.5e-12
Total number of shell pairs                 ...      1830
Shell pairs after pre-screening             ...      1558
Total number of primitive shell pairs       ...      6430
Primitive shell pairs kept                  ...      4100
          la=0 lb=0:    519 shell pairs
          la=1 lb=0:    581 shell pairs
          la=1 lb=1:    174 shell pairs
          la=2 lb=0:    170 shell pairs
          la=2 lb=1:     97 shell pairs
          la=2 lb=2:     17 shell pairs

Checking whether 4 symmetric matrices of dimension 124 fit in memory
:Max Core in MB      =   4096.00
 MB in use           =      5.00
 MB left             =   4091.00
 MB needed           =      0.24
 Data fit in memory  = YES
Calculating RI/J V-Matrix + Cholesky decomp.... done (  0.0 sec)
Calculating Nuclear repulsion               ... done (  0.0 sec) ENN=    229.915064834590 Eh

Diagonalization of the overlap matrix:
Smallest eigenvalue                        ... 2.895e-03
Time for diagonalization                   ...    0.001 sec
Threshold for overlap eigenvalues          ... 1.000e-07
Number of eigenvalues below threshold      ... 0
Time for construction of square roots      ...    0.000 sec
Total time needed                          ...    0.002 sec

-------------------
DFT GRID GENERATION
-------------------

General Integration Accuracy     IntAcc      ... 4.388
Radial Grid Type                 RadialGrid  ... OptM3 with GC (2021)
Angular Grid (max. ang.)         AngularGrid ... 4 (Lebedev-302)
Angular grid pruning method      GridPruning ... 4 (adaptive)
Weight generation scheme         WeightScheme... mBecke (2022)
Basis function cutoff            BFCut       ... 1.0000e-11
Integration weight cutoff        WCut        ... 1.0000e-14
Partially contracted basis set               ... off
Rotationally invariant grid construction     ... off
Angular grids for H and He will be reduced by one unit

Total number of grid points                  ...    62547
Total number of batches                      ...      984
Average number of points per batch           ...       63
Average number of grid points per atom       ...     4468

--------------------
COSX GRID GENERATION
--------------------

GRIDX 1
-------
General Integration Accuracy     IntAcc      ... 3.816
Radial Grid Type                 RadialGrid  ... OptM3 with GC (2021)
Angular Grid (max. ang.)         AngularGrid ... 1 (Lebedev-50)
[...]
Virial Ratio       :          2.00834237118545

DFT components:
N(Alpha)           :       24.999992654979 electrons
N(Beta)            :       24.999992654979 electrons
N(Total)           :       49.999985309957 electrons
E(X)               :      -34.217573040668 Eh       
E(C)               :       -2.004924252334 Eh       
E(XC)              :      -36.222497293002 Eh       

---------------
SCF CONVERGENCE
---------------

  Last Energy change         ...   -3.1775e-10  Tolerance :   1.0000e-08
  Last MAX-Density change    ...    1.8682e-05  Tolerance :   1.0000e-07
  Last RMS-Density change    ...    8.0412e-07  Tolerance :   5.0000e-09
  Last DIIS Error            ...    6.6490e-04  Tolerance :   5.0000e-07
  Last Orbital Gradient      ...    2.0624e-05  Tolerance :   1.0000e-05
  Last Orbital Rotation      ...    8.0505e-06  Tolerance :   1.0000e-05


Total SCF time: 0 days 0 hours 0 min 7 sec 
Finished LeanSCF after   7.4 sec

Maximum memory used throughout the entire LEANSCF-calculation: 14.7 MB


-------------------------------------------------------------------------------
                          DFT DISPERSION CORRECTION                            
                                                                               
                                DFTD4 V3.4.0                                   
-------------------------------------------------------------------------------
-------------------------   ----------------
Dispersion correction           -0.011471158
-------------------------   ----------------


-------------------------   --------------------
FINAL SINGLE POINT ENERGY      -344.378878630501
-------------------------   --------------------

------------------------------------------------------------------------------
                         ORCA SCF GRADIENT CALCULATION
------------------------------------------------------------------------------

Nuc. rep. gradient        (SHARK) ... done (  0.0 sec)
HCore & Overlap gradient  (SHARK) ... done (  0.0 sec)
Split-RIJ-J gradient      (SHARK) ... done (  0.2 sec)
done (  4.0 sec)
XC gradient                       ... done (  1.1 sec)
Dispersion correction             ... done (  0.0 sec)

-------------------
DISPERSION GRADIENT
-------------------

   1   C   :   -0.000322873   -0.000271319    0.000005961
   2   C   :   -0.000165186   -0.000017022   -0.000049287
   3   O   :    0.000011866    0.000084002    0.000133082
   4   O   :   -0.000161072    0.000223167   -0.000246764
   5   C   :    0.000167948    0.000333888    0.000164792
   6   O   :    0.000371061   -0.000214684   -0.000110387
   7   H   :   -0.000073247   -0.000049431   -0.000026167
   8   H   :   -0.000093432   -0.000060720    0.000038793
   9   H   :   -0.000056907   -0.000104398    0.000007649
  10   H   :    0.000088880    0.000020610    0.000024646
  11   H   :    0.000028420    0.000054682    0.000017027
  12   H   :    0.000048693    0.000059659    0.000088442
  13   H   :    0.000014267   -0.000023442   -0.000004078
  14   H   :    0.000141581   -0.000034993   -0.000043708

Difference to translation invariance:
           :   -0.0000000000    0.0000000000    0.0000000000

Difference to rotation invariance:
           :   -0.0000000000   -0.0000000000    0.0000000000

Norm of the Dispersion gradient    ...    0.0009053107
RMS gradient                       ...    0.0001396925
MAX gradient                       ...    0.0003710613

------------------
CARTESIAN GRADIENT
------------------

   1   C   :    0.000183747   -0.001154187   -0.001044434
   2   C   :   -0.001377699   -0.001091060    0.000536970
   3   O   :   -0.000553802    0.000955229    0.000332188
   4   O   :    0.000966090    0.000855761    0.000447590
   5   C   :   -0.001384140   -0.000561779    0.001373000
   6   O   :    0.001136720    0.002285565   -0.000843345
   7   H   :    0.000083159    0.000450867    0.000288972
   8   H   :    0.000255228    0.000646991    0.000047342
   9   H   :    0.000235268   -0.000052500    0.000401019
  10   H   :    0.001888787   -0.000602150    0.000355419
  11   H   :   -0.000958300    0.001469451   -0.000987797
  12   H   :    0.000346641   -0.001302135   -0.001705605
  13   H   :    0.000229899   -0.000600115    0.000243764
  14   H   :   -0.001051599   -0.001299939    0.000554916

Difference to translation invariance:
           :   -0.0000000001    0.0000000001   -0.0000000000

Difference to rotation invariance:
           :   -0.0000735419    0.0000202595    0.0000754879

Norm of the Cartesian gradient     ...    0.0061467100
RMS gradient                       ...    0.0009484579
MAX gradient                       ...    0.0022855655

-------
TIMINGS
-------

Total SCF gradient time     ....        5.260 sec

Densities                   ....       0.000 sec  (  0.0%)
One electron gradient       ....       0.027 sec  (  0.5%)
RI-J Coulomb gradient       ....       0.183 sec  (  3.5%)
COSX gradient               ....       3.951 sec  ( 75.1%)
XC gradient                 ....       1.080 sec  ( 20.5%)

Maximum memory used throughout the entire SCFGRAD-calculation: 28.3 MB
------------------------------------------------------------------------------
                         ORCA GEOMETRY RELAXATION STEP
------------------------------------------------------------------------------

Reading the OPT-File                    .... done
Getting information on internals        .... done
Copying old internal coords+grads       .... done
Making the new internal coordinates     .... (2022 redundants) done
Validating the new internal coordinates .... (2022 redundants) done
Calculating the B-matrix                .... done
Calculating the G,G- and P matrices     .... done
Transforming gradient to internals      .... done
Projecting the internal gradient        .... done
Number of atoms                         ....  14
Number of internal coordinates          ....  58
Current Energy                          ....  -344.378878631 Eh
Current gradient norm                   ....     0.006146710 Eh/bohr
Maximum allowed component of the step   ....  0.300
Current trust radius                    ....  0.700
Updating the Hessian (BFGS)             .... done
Forming the augmented Hessian           .... done
Diagonalizing the augmented Hessian     .... done
Last element of RFO vector              ....  0.907739487
Lowest eigenvalues of augmented Hessian:
 -0.000335914  0.000052695  0.000225956  0.000696720  0.001914580
Length of the computed step             ....  0.462174775
The final length of the internal step   ....  0.462174775
Converting the step to Cartesian space:
 Initial RMS(Int)=    0.0606865210
Transforming coordinates:
 Iter   0:  RMS(Cart)=    0.1674476519 RMS(Int)=    0.0544012638
 Iter   5:  RMS(Cart)=    0.0000298396 RMS(Int)=    0.0000209345
done
Storing new coordinates                 .... done
The predicted energy change is          ....    -0.000203834
Previously predicted energy change      ....    -0.000093169
Actually observed energy change         ....    -0.000128505
Ratio of predicted to observed change   ....     1.379270358
New trust radius                        ....     0.700000000

                                .--------------------.
          ----------------------|Geometry convergence|-------------------------
          Item                value                   Tolerance       Converged
          ---------------------------------------------------------------------
          Energy change      -0.0001285046            0.0000050000      NO
          RMS gradient        0.0015263527            0.0001000000      NO
          MAX gradient        0.0078995730            0.0003000000      NO
          RMS step            0.0606865210            0.0020000000      NO
          MAX step            0.2079410942            0.0040000000      NO
          -------------------------------------------------------------------------
          ........................................................
          Max(Bonds)      0.0507      Max(Angles)   11.91
          Max(Dihed)        9.64      Max(Improp)    0.00
          ---------------------------------------------------------------------

The optimization has not yet converged - more geometry cycles are needed


    ---------------------------------------------------------------------------
                         Redundant Internal Coordinates
                            (Angstroem and degrees)

        Definition                    Value    dE/dq     Step     New-Value
    ----------------------------------------------------------------------------
     1. B(C   1,C   0)                1.5097 -0.000452  0.0018    1.5115   
     2. B(O   2,C   1)                1.3478  0.000771  0.0026    1.3504   
     3. B(O   3,C   1)                1.2061  0.002097  0.0009    1.2070   
     4. B(C   4,O   2)                1.4340 -0.000457  0.0014    1.4354   
     5. B(O   5,C   4)                3.2761  0.000809 -0.0400    3.2361   
     6. B(H   6,C   0)                1.0965 -0.000294  0.0019    1.0984   
     7. B(H   7,C   0)                1.1028  0.000026 -0.0000    1.1028   
     8. B(H   8,C   0)                1.0995  0.000205 -0.0014    1.0981   
     9. B(H   9,O   5)                2.2480 -0.000312  0.0193    2.2672   
    10. B(H   9,O   2)                2.0815  0.000578  0.0040    2.0855   
    11. B(H   9,C   4)                1.1019  0.000518 -0.0031    1.0988   
    12. B(H  10,O   3)                2.3021 -0.000633 -0.0100    2.2921   
    13. B(H  11,O   2)                2.0417 -0.000825 -0.0137    2.0280   
    14. B(H  11,C   4)                1.0970 -0.000758  0.0082    1.1052   
    15. B(H  11,O   5)                3.5962 -0.000368 -0.0263    3.5700   
    16. B(H  12,O   5)                0.9668  0.000383  0.0011    0.9679   
    17. B(H  13,H  11)                3.6129 -0.000426  0.0028    3.6157   
    18. B(H  13,H   9)                2.4111 -0.000362  0.0507    2.4618   
    19. B(H  13,O   5)                0.9694  0.001864 -0.0051    0.9642   
    20. B(H  13,C   4)                3.2752  0.000633 -0.0481    3.2271   
    21. A(H   7,C   0,H   8)          107.48  0.000271    1.47    108.95   
    22. A(H   6,C   0,H   7)          108.92  0.000293   -0.95    107.97   
    23. A(C   1,C   0,H   8)          111.06  0.000139    0.87    111.93   
    24. A(C   1,C   0,H   6)          109.57 -0.000123   -0.43    109.14   
    25. A(C   1,C   0,H   7)          108.43 -0.001153   -0.85    107.58   
    26. A(H   6,C   0,H   8)          111.30  0.000536   -0.24    111.06   
    27. A(O   2,C   1,O   3)          123.96  0.004252   -0.20    123.76   
    28. A(C   0,C   1,O   2)          110.75 -0.002532    0.23    110.98   
    29. A(C   0,C   1,O   3)          125.28 -0.001715   -0.06    125.22   
    30. A(C   1,O   2,C   4)          117.91  0.004632   -0.41    117.50   
    31. A(C   1,O   3,H  10)           83.95  0.007900    0.10     84.05   
    32. A(H   9,C   4,H  11)          108.26 -0.000862   -0.96    107.30   
    33. A(O   2,C   4,H  11)          106.79  0.000092   -1.62    105.18   
    34. A(O   2,C   4,H   9)          109.64  0.000430    0.39    110.03   
    35. A(O   5,C   4,H  11)           97.97 -0.000435    0.54     98.52   
    36. A(O   5,C   4,H   9)           17.29 -0.000717    6.54     23.83   
    37. A(O   2,C   4,O   5)          100.62  0.000814  -11.91     88.71   
    38. A(H  12,O   5,H  13)          103.64 -0.000374    0.68    104.32   
    39. A(C   4,O   5,H  13)           81.44 -0.000229   -0.60     80.84   
    40. A(C   4,O   5,H  12)          174.80  0.000617    0.16    174.96   
    41. D(O   2,C   1,C   0,H   8)    -41.04  0.000566    1.76    -39.28   
    42. D(O   2,C   1,C   0,H   6)   -164.41 -0.000122    1.67   -162.73   
    43. D(O   3,C   1,C   0,H   7)   -101.62 -0.000026    3.98    -97.64   
    44. D(O   2,C   1,C   0,H   7)     76.84  0.000272    3.53     80.37   
    45. D(O   3,C   1,C   0,H   6)     17.14 -0.000421    2.13     19.26   
    46. D(C   4,O   2,C   1,O   3)     -0.36 -0.000873    1.74      1.38   
    47. D(C   4,O   2,C   1,C   0)   -178.84 -0.001059    2.16   -176.68   
    48. D(H  10,O   3,C   1,O   2)     -8.36 -0.001383   -1.74    -10.10   
    49. D(H  10,O   3,C   1,C   0)    169.90 -0.001163   -2.22    167.69   
    50. D(O   5,C   4,O   2,C   1)   -117.71 -0.000003   -3.08   -120.79   
    51. D(H  11,C   4,O   2,C   1)    140.52  0.000158    0.98    141.50   
    52. D(H   9,C   4,O   2,C   1)   -102.40 -0.000587   -0.88   -103.28   
    53. D(H  12,O   5,C   4,H  11)    -97.48  0.000112    6.66    -90.81   
    54. D(H  12,O   5,C   4,H   9)     30.44 -0.000025   -8.79     21.65   
    55. D(H  12,O   5,C   4,O   2)    153.67 -0.000048    3.16    156.83   
    56. D(H  13,O   5,C   4,H  11)     94.67  0.000110    6.41    101.08   
    57. D(H  13,O   5,C   4,H   9)   -137.41 -0.000027   -9.05   -146.46   
    58. D(H  13,O   5,C   4,O   2)    -14.18 -0.000050    9.64     -4.54   
    ----------------------------------------------------------------------------

Geometry step timings:
Preparation and reading OPT file:      0.000 s ( 0.967 %)
Internal coordinates            :      0.000 s ( 1.243 %)
B/P matrices and projection     :      0.000 s (12.799 %)
Hessian update/contruction      :      0.001 s (48.527 %)
Making the step                 :      0.000 s (10.267 %)
Converting the step to Cartesian:      0.000 s ( 1.703 %)
Storing new data                :      0.000 s ( 5.341 %)
Checking convergence            :      0.000 s ( 2.302 %)
Final printing                  :      0.000 s (16.805 %)
Total time                      :      0.002 s

Time for energy+gradient        :     13.369 s
Time for complete geometry iter :     13.415 s




    ----------------------------------------------------------------------------
                                  WARNING !!!
       The optimization did not converge but reached the maximum number of
       optimization cycles.
       Please check your results very carefully.
    ----------------------------------------------------------------------------



--------------------------------
SUGGESTED CITATIONS FOR THIS RUN
--------------------------------

Below you find a list of papers that are relevant to this ORCA run
We neither can nor want to force you to cite these papers, but we appreciate if you do
You receive ORCA, which is the product of decades of hard work by many enthusiastic individuals, for free
The only thing we kindly ask in return is that you cite our papers,
We deeply appreciate it, if you show your appreciation for ORCA by not just citing the generic ORCA reference.

Please note that relegating all ORCA citations to the supporting information does *not* help us.
SI sections are not indexed - citations you put there will not count into any citation statistics
But we need these citations in order to attract the funding resources that allow us to do what we are doing

Therefore, if you are a happy ORCA user, please consider citing a few of the papers listed below in the main body of your paper

In addition to the list printed below, the program has created the file reactants.bibtex that contains the list in bibtex format
You can import this file easily into all common literature databanks and citation aid programs


List of essential papers. We consider these as the minimum necessary citations

  1. Neese, F.
     Software update: the ORCA program system, version 6.0
     WIRES Comput. Molec. Sci. 2025 15(1), e70019
     doi.org/10.1002/wcms.7019

List of papers to cite with high priority. The work reported in these papers was absolutely
necessary for this run to complete.
Our perspective: the developers of density functionals and basis sets usually get cited in chemistry papers
Good! But without the algorithms to do something with them, the functionals or basis sets would not do anything.
Hence, in our opinion, the algorithm design and method developments papers are equally worthy of getting cited

  1. Neese, F.
     An improvement of the resolution of the identity approximation for the formation of the Coulomb matrix
     J. Comp. Chem. 2003 24(14), 1740-1747
     doi.org/10.1002/jcc.10318
  2. Neese, F.; Wennmohs, F.; Hansen, A.; Becker, U.
     Efficient, approximate and parallel Hartree-Fock and hybrid DFT calculations. A 'chain-of-spheres' algorithm for the Hartree-Fock exchange
     Chem. Phys. 2009 356(1-3), 98-109
     doi.org/10.1016/j.chemphys.2008.10.036
  3. Caldeweyher, E.; Bannwarth, C.; Grimme, S.
     Extension of the D3 dispersion coefficient model
     J. Chem. Phys. 2017 147 , 034112
     doi.org/10.1063/1.4993215
  4. Caldeweyher, E.; Ehlert, S.; Hansen, A.; Neugebauer, H.; Spicher, S.; Bannwarth, C.; Grimme, S.
     A generally applicable atomic-charge dependent London dispersion correction
     J. Chem. Phys. 2019 150 , 154122
     doi.org/10.1063/1.5090222
  5. Caldeweyher, E.; Mewes, J.; Ehlert, S.; Grimme, S.
     Extension and evaluation of the D4 London-dispersion model for periodic systems
     Phys. Chem. Chem. Phys. 2020 22(16), 8499-8512
     doi.org/10.1039/D0CP00502A
  6. Helmich-Paris, B.; de Souza, B.; Neese, F.; Izsák, R.
     An improved chain of spheres for exchange algorithm
     J. Chem. Phys. 2021 155(10), 104109
     doi.org/10.1063/5.0058766
  7. Neese, F.
     The SHARK Integral Generation and Digestion System
     J. Comp. Chem. 2022 44(3), 381
     doi.org/10.1002/jcc.26942
  8. Wittmann, L.; Gordiy, I.; Friede, M.; Helmich-Paris, B.; Grimme, S.; Hansen, A.; Bursch, M.
     Extension of the D3 and D4 London Dispersion Corrections to the full Actinides Series
     Phys. Chem. Chem. Phys. 2024 26(32), 21379-21394
     doi.org/10.1039/D4CP01514B

List of suggested additional citations. These are papers that are important in the 'surrounding' of 
of this run, or papers that preceded the highly important papers. If you like your results we are grateful for a citation.

  1. Izsak, R.; Neese, F.
     An overlap fitted chain of spheres exchange method
     J. Chem. Phys. 2011 135 , 144105
     doi.org/10.1063/1.3646921
  2. Izsak, R.; Hansen, A.; Neese, F.
     The resolution of identity and chain of spheres approximations for the LPNO-CCSD singles Fock term
     Molec. Phys. 2012 110 , 2413-2417
     doi.org/10.1080/00268976.2012.687466
  3. Neese, F.
     The ORCA program system
     WIRES Comput. Molec. Sci. 2012 2(1), 73-78
     doi.org/10.1002/wcms.81
  4. Izsak, R.; Neese, F.; Klopper, W.
     Robust fitting techniques in the chain of spheres approximation to the Fock exchange: The role of the complementary space
     J. Chem. Phys. 2013 139 , 
     doi.org/10.1063/1.4819264
  5. Neese, F.
     Software update: the ORCA program system, version 4.0
     WIRES Comput. Molec. Sci. 2018 8(1), 1-6
     doi.org/10.1002/wcms.1327
  6. Neese, F.; Wennmohs, F.; Becker, U.; Riplinger, C.
     The ORCA quantum chemistry program package
     J. Chem. Phys. 2020 152(22), 224108
     doi.org/10.1063/5.0004608
  7. Neese, F.
     Software update: The ORCA program system—Version 5.0
     WIRES Comput. Molec. Sci. 2022 12(1), e1606
     doi.org/10.1002/wcms.1606

List of optional additional citations

  1. Neese, F.
     Approximate second-order SCF convergence for spin unrestricted wavefunctions
     Chem. Phys. Lett. 2000 325(1-3), 93-98
     doi.org/10.1016/s0009-2614(00)00662-x

Timings for individual modules:

Sum of individual times          ...     1040.993 sec (=  17.350 min)
Startup calculation              ...       34.808 sec (=   0.580 min)   3.3 %
SCF iterations                   ...      592.799 sec (=   9.880 min)  56.9 %
SCF Gradient evaluation          ...      413.215 sec (=   6.887 min)  39.7 %
Geometry relaxation              ...        0.171 sec (=   0.003 min)   0.0 %
                             ****ORCA TERMINATED NORMALLY****
TOTAL RUN TIME: 0 days 0 hours 17 minutes 28 seconds 203 msec
