
                                 *****************
                                 * O   R   C   A *
                                 *****************

                                            #,                                       
                                            ###                                      
                                            ####                                     
                                            #####                                    
                                            ######                                   
                                           ########,                                 
                                     ,,################,,,,,                         
                               ,,#################################,,                 
                          ,,##########################################,,             
                       ,#########################################, ''#####,          
                    ,#############################################,,   '####,        
                  ,##################################################,,,,####,       
                ,###########''''           ''''###############################       
              ,#####''   ,,,,##########,,,,          '''####'''          '####       
            ,##' ,,,,###########################,,,                        '##       
           ' ,,###''''                  '''############,,,                           
         ,,##''                                '''############,,,,        ,,,,,,###''
      ,#''                                            '''#######################'''  
     '                                                          ''''####''''         
             ,#######,   #######,   ,#######,      ##                                
            ,#'     '#,  ##    ##  ,#'     '#,    #''#        ,####,    ,#,          
            ##       ##  ##   ,#'  ##            #'  '#       #'       ,# #          
            ##       ##  #######   ##           ,######,      #####,      #          
            '#,     ,#'  ##    ##  '#,     ,#' ,#      #,     #,   #      #          
             '#######'   ##     ##  '#######'  #'      '#     '####' #    #          



                #########################################################
                #                        -***-                          #
                #          Department of theory and spectroscopy        #
                #                                                       #
                #                      Frank Neese                      #
                #                                                       #
                #     Directorship, Architecture, Infrastructure        #
                #                    SHARK, DRIVERS                     #
                #        Core code/Algorithms in most modules           #
                #                                                       #
                #        Max Planck Institute fuer Kohlenforschung      #
                #                Kaiser Wilhelm Platz 1                 #
                #                 D-45470 Muelheim/Ruhr                 #
                #                      Germany                          #
                #                                                       #
                #                  All rights reserved                  #
                #                        -***-                          #
                #########################################################


                         Program Version 6.1.0  -  RELEASE   -
                                (GIT: $679e74b7b5$)
                          ($2025-06-10 18:02:51 +0200$)


 With contributions from (in alphabetic order):
[Max-Planck-Institut fuer Kohlenforschung]                               
  Daniel Aravena         : Magnetic Suceptibility                        
  Michael Atanasov       : Ab Initio Ligand Field Theory (pilot matlab implementation)
  Alexander A. Auer      : GIAO ZORA, VPT2 properties, NMR spectrum      
  Ute Becker             : All parallelization in ORCA, NUMFREQ, NUMCALC 
  Giovanni Bistoni       : ED, misc. LED, open-shell LED, HFLD           
  Dmytro Bykov           : pre 5.0 version of the SCF Hessian            
  Marcos Casanova-Páez   : Triplet and SCS-CIS(D). UHF-(DLPNO)-IP/EA/STEOM-CCSD. UHF-CVS-IP/STEOM-CCSD   
  Vijay G. Chilkuri      : MRCI spin determinant printing, contributions to CSF-ICE 
  Pauline Colinet        : FMM embedding                                 
  Dipayan Datta          : RHF DLPNO-CCSD density                        
  Achintya Kumar Dutta   : EOM-CC, STEOM-CC                              
  Nicolas Foglia         : Exact transition moments, OPA infrastructure, MCD improvements    
  Dmitry Ganyushin       : Spin-Orbit,Spin-Spin,Magnetic field MRCI      
  Miquel Garcia-Rates    : C-PCM and meta-GGA Hessian, CCSD/C-PCM, Gaussian charge scheme 
  Tiago L. C. Gouveia    : GS-ROHF, GS-ROCIS                             
  Yang Guo               : DLPNO-NEVPT2, F12-NEVPT2, CIM, IAO-localization        
  Andreas Hansen         : Spin unrestricted coupled pair/coupled cluster methods 
  Ingolf Harden          : AUTO-CI MPn and infrastructure                
  Benjamin Helmich-Paris : MC-RPA, TRAH-(SCF,CASSCF), AVAS, COSX integrals, SCF dyn. polar., MC-PDFT, srDFT 
  Lee Huntington         : MR-EOM, pCC                                   
  Robert Izsak           : Overlap fitted RIJCOSX, COSX-SCS-MP3, EOM     
  Riya Kayal             : Wick's Theorem for AUTO-CI, AUTO-CI UHF-CCSDT 
  Emily Kempfer          : AUTO-CI RHF CISDT and CCSDT, approximate NEVPT4
  Christian Kollmar      : KDIIS, OOCD, Brueckner-CCSD(T), CCSD density, CASPT2, CASPT2-K, improved NEVPT2 
  Axel Koslowski         : Symmetry handling                             
  Simone Kossmann        : meta-GGA functionals, TD-DFT gradient, OOMP2, (MP2 Hessian; deprecated post 5.0) 
  Lucas Lang             : DCDCAS, Hyperfine gauge corrections, ICE-SOC+SSC
  Marvin Lechner         : AUTO-CI (C++ implementation), FIC-MRCC        
  Spencer Leger          : CASSCF response                               
  Dagmar Lenk            : GEPOL surface, SMD, ORCA-2-JSON               
  Dimitrios Liakos       : Extrapolation schemes; Compound Job, Property file
  Dimitrios Manganas     : Further ROCIS development; embedding schemes. LFT, Crystal Embedding 
  Dimitrios Pantazis     : SARC Basis sets                               
  Anastasios Papadopoulos: AUTO-CI, single reference methods and gradients 
  Taras Petrenko         : pre 6.0 DFT Hessian and TD-DFT gradient,  ECA, NRVS 
  Petra Pikulova         : Analytic Raman intensities                    
  Peter Pinski           : DLPNO-MP2, DLPNO-MP2 Gradient                 
  Shashank Vittal Rao    : ES-AILFT, MagRelax                            
  Christoph Reimann      : Effective Core Potentials                     
  Marius Retegan         : Local ZFS, SOC                                
  Christoph Riplinger    : Optimizer, TS searches, QM/MM, DLPNO-CCSD(T), (RO)-DLPNO pert. Triples 
  Michael Roemelt        : Original ROCIS implementation, recursive CI coupling coefficients
  Masaaki Saitow         : Open-shell DLPNO-CCSD energy and density      
  Barbara Sandhoefer     : DKH picture change effects                    
  Yorick L. A. Schmerwitz: GMF and freeze-and-release deltaSCF, NEB S-IDPP initial path                    
  Kantharuban Sivalingam : CASSCF convergence/infrastructure, NEVPT2, NEVPT3, NEVPT4(SD), FIC-MRCI and CEPA variants
  Bernardo de Souza      : ESD, SOC TD-DFT                               
  Georgi L. Stoychev     : AutoAux, RI-MP2 NMR, DLPNO-MP2 response, X2C  
  Van Anh Tran           : RI-MP2 g-tensors                              
  Willem Van den Heuvel  : Paramagnetic NMR                              
  Zikuan Wang            : NOTCH, Electric field optimization            
  Frank Wennmohs         : Technical directorship and infrastructure     
  Hang Xu                : AUTO-CI-Response properties                   
                                                                         
[FACCTs GmbH]                                                            
  Markus Bursch, Nicolas Foglia, Miquel Garcia-Rates, Ingolf Harden, Hagen Neugebauer, Anastasios Papadopoulos, 
  Christoph Riplinger, Bernardo de Souza, Georgi L. Stoychev                                                    
                                                                 
  APM, various basis sets, CI-OPT, improved COSX, DLPNO-Multilevel,           
  DOCKER, DRACO, updates on ESD, Fragmentator, GOAT, IRC, LR-CPCM, L-BFGS, MBIS, meta-GGA TD-DFT gradient, ML-optimized integration grids, 
  MM, NACMEs, nearIR, NEB, NEB-TS, NL-DFT gradient (VV10), 2- and 3-layer-ONIOM, interface openCOSMO-RS, QMMM,   
  Crystal-QMMM, RESP, rigid body optimization, SF, symmetry and pop. for TD-DFT, various functionals, SOLVATOR                                   
                                                                         
[Other institutions]                                                     
  V. Asgeirsson          : NEB                                           
  Christoph Bannwarth    : sTDA-DFT, sTD-DFT, PBEh-3c, B97-3c, D3        
  Giovanni Bistoni       : ETS/NOCV, ADLD/ADEX, COVALED                  
  Martin Brehm           : Molecular dynamics                            
  Ronald Cardenas        : ETS/NOCV                                      
  Martina Colucci        : COVALED                                       
  Sebastian Ehlert       : rSCAN, r2SCAN, r2SCAN-3c, D4, dhf basis sets  
  Marvin Friede          : D4 for Fr, Ra, Ac-Lr                          
  Lars Goerigk           : TD-DFT with DH, B97 family of functionals     
  Stefan Grimme          : VdW corrections, initial TS optimization, DFT functionals, gCP, sTDA/sTD-DF 
  Waldemar Hujo          : DFT-NL                                        
  H. Jonsson             : NEB                                           
  Holger Kruse           : gCP                                           
  Marcel Mueller         : wB97X-3c, vDZP basis set                      
  Hagen Neugebauer       : wr2SCAN, Native XTB                           
  Gianluca Regni         : ADLD/ADEX                                     
  Tobias Risthaus        : pre 6.0 range-separated hybrid DFT and stability analysis
  Lukas Wittmann         : regularized MP2, r2SCAN double-hybrids, wr2SCAN        
                                                                         
We gratefully acknowledge several colleagues who have allowed us to      
interface, adapt or use parts of their codes:                            
  Ed Valeev, F. Pavosevic, A. Kumar             : LibInt (2-el integral package), F12 methods 
  Garnet Chan, S. Sharma, J. Yang, R. Olivares  : DMRG                   
  Ulf Ekstrom                                   : XCFun DFT Library      
  Mihaly Kallay                                 : mrcc  (arbitrary order and MRCC methods)
  Frank Weinhold                                : gennbo (NPA and NBO analysis)           
  Simon Mueller                                 : openCOSMO-RS                            
  Christopher J. Cramer and Donald G. Truhlar   : smd solvation model                     
  S Lehtola, MJT Oliveira, MAL Marques          : LibXC Library                           
  Liviu Ungur et al                             : ANISO software                          


 Your calculation uses the libint2 library for the computation of 2-el integrals
 For citations please refer to: http://libint.valeyev.net

 Your ORCA version has been built with support for libXC version: 7.0.0
 For citations please refer to: https://libxc.gitlab.io

 This ORCA versions uses:
   CBLAS   interface :  Fast vector & matrix operations
   LAPACKE interface :  Fast linear algebra routines
   SCALAPACK package :  Parallel linear algebra routines
   Shared memory     :  Shared parallel matrices


  ***********************************
  * Starting time: Sun Aug 31 18:15:54 2025
  * Host name:     Tommasos-MacBook-Air-4.local
  * Process ID:    11943
  * Working dir.:  /Users/tommasocolombo/Desktop/ORCA calculations/Indole/TESTS/TS test
  ***********************************



***************************************
The coordinates will be read from file: bromoethane.xyz
***************************************


================================================================================

----- Orbital basis set information -----
Your calculation utilizes the basis: def2-SVP
   F. Weigend and R. Ahlrichs, Phys. Chem. Chem. Phys. 7, 3297 (2005).

================================================================================
                                        WARNINGS
                       Please study these warnings very carefully!
================================================================================

WARNING: Old DensityContainer found on disk!
         Will remove this file - 
         If you want to keep old densities, please start your calculation with a different basename. 


WARNING: Geometry Optimization
  ===> : Switching off AutoStart
         For restart on a previous wavefunction, please use MOREAD

================================================================================
                                       INPUT FILE
================================================================================
NAME = bromoethane.inp
|  1> !HF DEF2-SVP OPT
|  2> * xyzfile 0 1 bromoethane.xyz                           ****END OF INPUT****
================================================================================

                       *****************************
                       * Geometry Optimization Run *
                       *****************************

Geometry optimization settings:
Update method            Update   .... BFGS
Choice of coordinates    CoordSys .... (2022) Redundant Internals
Initial Hessian          InHess   .... Almloef's Model
Max. no of cycles        MaxIter  .... 50

Convergence Tolerances:
Energy Change            TolE     ....  5.0000e-06 Eh
Max. Gradient            TolMAXG  ....  3.0000e-04 Eh/bohr
RMS Gradient             TolRMSG  ....  1.0000e-04 Eh/bohr
Max. Displacement        TolMAXD  ....  4.0000e-03 bohr
RMS Displacement         TolRMSD  ....  2.0000e-03 bohr
Strict Convergence                .... False

------------------------------------------------------------------------------
                        ORCA OPTIMIZATION COORDINATE SETUP
------------------------------------------------------------------------------

The optimization will be done in redundant internal coordinates (2022)
Making redundant internal coordinates   ...  (2022 redundants) done
Evaluating the initial hessian          ...  (Almloef) done
Evaluating the coordinates              ...  done
Calculating the B-matrix                .... done
Calculating the G-matrix                .... done
The number of degrees of freedom        ....   25

    -----------------------------------------------------------------
                    Redundant Internal Coordinates


    -----------------------------------------------------------------
         Definition                    Initial Value    Approx d2E/dq
    -----------------------------------------------------------------
      1. B(C   1,C   0)                  1.5117         0.399483   
      2. B(Br  2,C   1)                  1.9619         0.256969   
      3. B(H   3,C   0)                  1.1120         0.332125   
      4. B(H   4,C   0)                  1.1087         0.336199   
      5. B(H   5,C   0)                  1.1091         0.335714   
      6. B(H   6,C   1)                  1.1007         0.346215   
      7. B(H   7,C   1)                  1.1180         0.324943   
      8. A(C   1,C   0,H   3)          110.5117         0.323584   
      9. A(H   3,C   0,H   4)          104.9157         0.284122   
     10. A(H   3,C   0,H   5)          107.5650         0.284058   
     11. A(C   1,C   0,H   5)          111.4134         0.324155   
     12. A(C   1,C   0,H   4)          113.2304         0.324232   
     13. A(H   4,C   0,H   5)          108.8625         0.284597   
     14. A(H   6,C   1,H   7)          106.3509         0.284453   
     15. A(C   0,C   1,H   7)          110.9973         0.322426   
     16. A(Br  2,C   1,H   6)          102.7773         0.321502   
     17. A(Br  2,C   1,H   7)          101.9650         0.318189   
     18. A(C   0,C   1,H   6)          115.5281         0.325801   
     19. A(C   0,C   1,Br  2)          117.7668         0.366673   
     20. D(Br  2,C   1,C   0,H   4)     30.3993         0.012663   
     21. D(Br  2,C   1,C   0,H   5)    153.5085         0.012663   
     22. D(H   6,C   1,C   0,H   3)    151.1354         0.012663   
     23. D(H   6,C   1,C   0,H   4)    -91.5001         0.012663   
     24. D(H   6,C   1,C   0,H   5)     31.6091         0.012663   
     25. D(Br  2,C   1,C   0,H   3)    -86.9652         0.012663   
    -----------------------------------------------------------------

Number of atoms                         .... 8
Number of degrees of freedom            .... 25


         *************************************************************
         *                GEOMETRY OPTIMIZATION CYCLE   1            *
         *************************************************************
---------------------------------
CARTESIAN COORDINATES (ANGSTROEM)
---------------------------------
  C     14.057013  -11.506695   -0.106555
  C     15.313237  -10.701414    0.135940
  Br    17.025102  -11.659663    0.147793
  H     13.859350  -11.601539   -1.196742
  H     14.128199  -12.549782    0.262374
  H     13.171091  -11.023343    0.353432
  H     15.341731  -10.140412    1.082520
  H     15.472483   -9.952497   -0.678682

----------------------------
CARTESIAN COORDINATES (A.U.)
----------------------------
  NO LB      ZA    FRAG     MASS         X           Y           Z
   0 C     6.0000    0    12.011   26.563905  -21.744503   -0.201359
   1 C     6.0000    0    12.011   28.937825  -20.222743    0.256890
   2 Br   35.0000    0    79.900   32.172781  -22.033569    0.279288
   3 H     1.0000    0     1.008   26.190377  -21.923731   -2.261515
   4 H     1.0000    0     1.008   26.698426  -23.715651    0.495815
   5 H     1.0000    0     1.008   24.889754  -20.831100    0.667890
   6 H     1.0000    0     1.008   28.991671  -19.162602    2.045666
   7 H     1.0000    0     1.008   29.238755  -18.807493   -1.282522

--------------------------------
INTERNAL COORDINATES (ANGSTROEM)
--------------------------------
 C      0   0   0     0.000000000000     0.00000000     0.00000000
 C      1   0   0     1.511747377760     0.00000000     0.00000000
 Br     2   1   0     1.961851501880   117.76682737     0.00000000
 H      1   2   3     1.112013732099   110.51168776   273.03476553
 H      1   2   3     1.108695325685   113.23035866    30.39928189
 H      1   2   3     1.109087645734   111.41336824   153.50848160
 H      2   1   3     1.100703436117   115.52807215   238.10063826
 H      2   1   3     1.117965122185   110.99725092   116.93840537

---------------------------
INTERNAL COORDINATES (A.U.)
---------------------------
 C      0   0   0     0.000000000000     0.00000000     0.00000000
 C      1   0   0     2.856788527640     0.00000000     0.00000000
 Br     2   1   0     3.707362053976   117.76682737     0.00000000
 H      1   2   3     2.101401410826   110.51168776   273.03476553
 H      1   2   3     2.095130531503   113.23035866    30.39928189
 H      1   2   3     2.095871908952   111.41336824   153.50848160
 H      2   1   3     2.080028048928   115.52807215   238.10063826
 H      2   1   3     2.112647908206   110.99725092   116.93840537

---------------------
BASIS SET INFORMATION
---------------------
There are 3 groups of distinct atoms

 Group   1 Type C   : 7s4p1d contracted to 3s2p1d pattern {511/31/1}
 Group   2 Type Br  : 14s10p6d contracted to 5s4p3d pattern {63311/5311/411}
 Group   3 Type H   : 4s1p contracted to 2s1p pattern {31/1}

Atom   0C    basis set group =>   1
Atom   1C    basis set group =>   1
Atom   2Br   basis set group =>   2
Atom   3H    basis set group =>   3
Atom   4H    basis set group =>   3
Atom   5H    basis set group =>   3
Atom   6H    basis set group =>   3
Atom   7H    basis set group =>   3
------------------------------------------------------------------------------
                             ORCA STARTUP CALCULATIONS
------------------------------------------------------------------------------
------------------------------------------------------------------------------
                   ___                                                        
                  /   \      - P O W E R E D   B Y -                         
                 /     \                                                     
                 |  |  |   _    _      __       _____    __    __             
                 |  |  |  | |  | |    /  \     |  _  \  |  |  /  |          
                  \  \/   | |  | |   /    \    | | | |  |  | /  /          
                 / \  \   | |__| |  /  /\  \   | |_| |  |  |/  /          
                |  |  |   |  __  | /  /__\  \  |    /   |      \           
                |  |  |   | |  | | |   __   |  |    \   |  |\   \          
                \     /   | |  | | |  |  |  |  | |\  \  |  | \   \       
                 \___/    |_|  |_| |__|  |__|  |_| \__\ |__|  \__/        
                                                                              
                      - O R C A' S   B I G   F R I E N D -                    
                                      &                                       
                       - I N T E G R A L  F E E D E R -                       
                                                                              
 v1 FN, 2020, v2 2021, v3 2022-2024                                           
------------------------------------------------------------------------------


----------------------
SHARK INTEGRAL PACKAGE
----------------------

Number of atoms                             ...      8
Number of basis functions                   ...     85
Number of shells                            ...     39
Maximum angular momentum                    ...      2
Integral batch strategy                     ... SHARK/LIBINT Hybrid
RI-J (if used) integral strategy            ... SPLIT-RIJ (Revised 2003 algorithm where possible)
Printlevel                                  ...      1
Contraction scheme used                     ... SEGMENTED contraction
Prescreening option                         ... SCHWARTZ
   Thresh                                   ... 2.500e-11
   Tcut                                     ... 2.500e-12
   Tpresel                                  ... 2.500e-12 
Coulomb Range Separation                    ... NOT USED
Exchange Range Separation                   ... NOT USED
Multipole approximations                    ... NOT USED
Finite Nucleus Model                        ... NOT USED
CABS basis                                  ... NOT available
Auxiliary Coulomb fitting basis             ... NOT available
Auxiliary J/K fitting basis                 ... NOT available
Auxiliary Correlation fitting basis         ... NOT available
Auxiliary 'external' fitting basis          ... NOT available

Checking pre-screening integrals            ... done (  0.0 sec) Dimension = 39
   => SHARK Basis and OBASIS are compatible. Storing Pre-screening
Shell pair information
Shell pair cut-off parameter TPreSel        ...   2.5e-12
Total number of shell pairs                 ...       780
Shell pairs after pre-screening             ...       761
Total number of primitive shell pairs       ...      3241
Primitive shell pairs kept                  ...      2538
          la=0 lb=0:    225 shell pairs
          la=1 lb=0:    265 shell pairs
          la=1 lb=1:     89 shell pairs
          la=2 lb=0:    103 shell pairs
          la=2 lb=1:     64 shell pairs
          la=2 lb=2:     15 shell pairs

Checking whether 4 symmetric matrices of dimension 85 fit in memory
:Max Core in MB      =   4096.00
 MB in use           =      2.05
 MB left             =   4093.95
 MB needed           =      0.11
 Data fit in memory  = YES
Calculating Nuclear repulsion               ... done (  0.0 sec) ENN=    161.745565141090 Eh

Diagonalization of the overlap matrix:
Smallest eigenvalue                        ... 3.850e-03
Time for diagonalization                   ...    0.001 sec
Threshold for overlap eigenvalues          ... 1.000e-07
Number of eigenvalues below threshold      ... 0
Time for construction of square roots      ...    0.000 sec
Total time needed                          ...    0.002 sec

-------------------
DFT GRID GENERATION
-------------------

General Integration Accuracy     IntAcc      ... 4.388
Radial Grid Type                 RadialGrid  ... OptM3 with GC (2021)
Angular Grid (max. ang.)         AngularGrid ... 4 (Lebedev-302)
Angular grid pruning method      GridPruning ... 4 (adaptive)
Weight generation scheme         WeightScheme... mBecke (2022)
Basis function cutoff            BFCut       ... 1.0000e-11
Integration weight cutoff        WCut        ... 1.0000e-14
Partially contracted basis set               ... off
Rotationally invariant grid construction     ... off
Angular grids for H and He will be reduced by one unit
Core-polarized basis detected: some atoms will have their core
                               angular grid increased.

Total number of grid points                  ...    39730
Total number of batches                      ...      624
Average number of points per batch           ...       63
Average number of grid points per atom       ...     4966
Grids setup in   0.2 sec
Initializing property integral containers    ... done (  0.0 sec)

SHARK setup successfully completed in   0.2 seconds

Maximum memory used throughout the entire STARTUP-calculation: 17.1 MB
-------------------------------------------------------------------------------
                                 ORCA GUESS
                   Start orbitals & Density for SCF / CASSCF
-------------------------------------------------------------------------------

------------
SCF SETTINGS
------------
Hamiltonian:
 Ab initio Hamiltonian  Method          .... Hartree-Fock(GTOs)


General Settings:
 Integral files         IntName         .... bromoethane
 Hartree-Fock type      HFTyp           .... RHF
 Total Charge           Charge          ....    0
 Multiplicity           Mult            ....    1
 Number of Electrons    NEL             ....   52
 Basis Dimension        Dim             ....   85
 Nuclear Repulsion      ENuc            ....    161.7455651411 Eh

Convergence Acceleration:
 AO-DIIS                CNVDIIS         .... on
   Start iteration      DIISMaxIt       ....    12
   Startup error        DIISStart       ....  0.200000
   # of expansion vecs  DIISMaxEq       ....     5
   Bias factor          DIISBfac        ....   1.050
   Max. coefficient     DIISMaxC        ....  10.000
 MO-DIIS                CNVKDIIS        .... off
 Trust-Rad. Augm. Hess. CNVTRAH         .... auto
   Auto Start mean grad. ratio tolernc. ....  1.125000
   Auto Start start iteration           ....    50
   Auto Start num. interpolation iter.  ....    10
   Max. Number of Micro iterations      ....    24
   Max. Number of Macro iterations      .... Maxiter - #DIIS iter
   Number of Davidson start vectors     ....     2
   Converg. threshold    (grad. norm)   ....   1.000e-05
   Grad. Scal. Fac. for Micro threshold ....   0.100
   Minimum threshold for Micro iter.    ....   1.000e-02
   NR start threshold (gradient norm)   ....   1.000e-04
   Initial trust radius                 ....   0.400
   Minimum AH scaling param. (alpha)    ....   1.000
   Maximum AH scaling param. (alpha)    .... 1000.000
   Quad. conv. algorithm                .... NR
   White noise on init. David. guess    .... on
   Maximum white noise                  ....   0.010
   Pseudo random numbers                .... off
   Inactive MOs                         .... canonical
   Orbital update algorithm             .... Taylor
   Preconditioner                       .... Diag
   Full preconditioner red. dimension   ....   250
 SOSCF                 CNVSOSCF           .... on
   Start iteration     SOSCFMaxIt         ....   150
   Startup grad/error  SOSCFStart         ....  0.003300
   Hessian update      SOSCFHessUp        .... L-BFGS
   Autom. constraints  SOSCFAutoConstrain .... off
 Level Shifting         CNVShift        .... on
   Level shift para.    LevelShift      ....    0.2500
   Turn off err/grad.   ShiftErr        ....    0.0010
 Zerner damping         CNVZerner       .... off
 Static damping         CNVDamp         .... on
   Fraction old density DampFac         ....    0.7000
   Max. Damping (<1)    DampMax         ....    0.9800
   Min. Damping (>=0)   DampMin         ....    0.0000
   Turn off err/grad.   DampErr         ....    0.1000

SCF Procedure:
 Maximum # iterations   MaxIter         ....   125
 SCF integral mode      SCFMode         .... Direct
   Integral package                     .... SHARK and LIBINT hybrid scheme
 Reset frequency        DirectResetFreq ....    20
 Integral Threshold     Thresh          ....  2.500e-11 Eh
 Primitive CutOff       TCut            ....  2.500e-12 Eh

Convergence Tolerance:
 Convergence Check Mode ConvCheckMode   .... Total+1el-Energy
 Convergence forced     ConvForced      .... 0
 Energy Change          TolE            ....  1.000e-08 Eh
 1-El. energy change                    ....  1.000e-05 Eh
 Orbital Gradient       TolG            ....  1.000e-05
 Orbital Rotation angle TolX            ....  1.000e-05
 DIIS Error             TolErr          ....  5.000e-07

------------------------------
INITIAL GUESS: MODEL POTENTIAL
------------------------------
Loading Hartree-Fock densities                     ... done
Calculating cut-offs                               ... done
Initializing the effective Hamiltonian             ... done
Setting up the integral package (SHARK)            ... done
Starting the Coulomb interaction                   ... done (   0.0 sec)
Making the grid                                    ... done (   0.1 sec)
Mapping shells                                     ... done
Starting the XC term evaluation                    ... done (   0.0 sec)
Transforming the Hamiltonian                       ... done (   0.0 sec)
Diagonalizing the Hamiltonian                      ... done (   0.0 sec)
Back transforming the eigenvectors                 ... done (   0.0 sec)
Now organizing SCF variables                       ... done
                      ------------------
                      INITIAL GUESS DONE (   0.1 sec)
                      ------------------
             **** ENERGY FILE WAS UPDATED (bromoethane.en.tmp) ****
Finished Guess after   0.1 sec
Maximum memory used throughout the entire GUESS-calculation: 6.8 MB

-------------------------------------------------------------------------------------------
                                      ORCA LEAN-SCF
                              memory conserving SCF solver
-------------------------------------------------------------------------------------------

----------------------------------------D-I-I-S--------------------------------------------
Iteration    Energy (Eh)           Delta-E    RMSDP     MaxDP     DIISErr   Damp  Time(sec)
-------------------------------------------------------------------------------------------
               ***  Starting incremental Fock matrix formation  ***
    1    -2650.5591171471655798     0.00e+00  3.16e-03  6.42e-02  1.90e-01  0.700   0.3
    2    -2650.6038987760875898    -4.48e-02  2.51e-03  5.48e-02  1.23e-01  0.700   0.3
                               ***Turning on AO-DIIS***
    3    -2650.6308591366027940    -2.70e-02  1.65e-03  5.27e-02  7.23e-02  0.700   0.3
    4    -2650.6480083796946019    -1.71e-02  3.96e-03  1.35e-01  4.83e-02  0.000   0.3
    5    -2650.6864583611168200    -3.84e-02  3.40e-04  9.38e-03  3.79e-03  0.000   0.3
                              *** Initializing SOSCF ***
---------------------------------------S-O-S-C-F--------------------------------------
Iteration    Energy (Eh)           Delta-E    RMSDP     MaxDP     MaxGrad    Time(sec)
--------------------------------------------------------------------------------------
    6    -2650.6865933105586919    -1.35e-04  1.68e-04  4.97e-03  1.45e-03     0.3
               *** Restarting incremental Fock matrix formation ***
    7    -2650.6866169927156989    -2.37e-05  7.00e-05  7.69e-04  4.03e-04     0.3
    8    -2650.6866212167242338    -4.22e-06  5.05e-05  1.11e-03  1.71e-04     0.3
    9    -2650.6866221148043223    -8.98e-07  8.63e-06  1.30e-04  5.82e-05     0.3
   10    -2650.6866221600530480    -4.52e-08  3.67e-06  6.45e-05  1.23e-05     0.2
   11    -2650.6866221647619568    -4.71e-09  1.13e-06  1.57e-05  5.37e-06     0.2
                 **** Energy Check signals convergence ****

               *****************************************************
               *                     SUCCESS                       *
               *           SCF CONVERGED AFTER  11 CYCLES          *
               *****************************************************

             **** ENERGY FILE WAS UPDATED (bromoethane.en.tmp) ****

----------------
TOTAL SCF ENERGY
----------------

Total Energy       :      -2650.68662216550638 Eh          -72128.84995 eV

Components:
Nuclear Repulsion  :        161.74556514108983 Eh            4401.32059 eV
Electronic Energy  :      -2812.43218730659601 Eh          -76530.17054 eV
One Electron Energy:      -4009.95461334362017 Eh         -109116.41240 eV
Two Electron Energy:       1197.52242603702416 Eh           32586.24186 eV

Virial components:
Potential Energy   :      -5300.80000868605566 Eh         -144242.10136 eV
Kinetic Energy     :       2650.11338652054974 Eh           72113.25141 eV
Virial Ratio       :          2.00021630608255

---------------
SCF CONVERGENCE
---------------

  Last Energy change         ...    4.7089e-09  Tolerance :   1.0000e-08
  Last MAX-Density change    ...    1.5741e-05  Tolerance :   1.0000e-07
  Last RMS-Density change    ...    1.1285e-06  Tolerance :   5.0000e-09
  Last DIIS Error            ...    1.4517e-03  Tolerance :   5.0000e-07
  Last Orbital Gradient      ...    5.3659e-06  Tolerance :   1.0000e-05
  Last Orbital Rotation      ...    1.1734e-05  Tolerance :   1.0000e-05


----------------
ORBITAL ENERGIES
----------------

  NO   OCC          E(Eh)            E(eV) 
   0   2.0000    -489.953173    -13332.3037 
   1   2.0000     -65.121764     -1772.0533 
   2   2.0000     -58.493778     -1591.6966 
   3   2.0000     -58.492227     -1591.6544 
   4   2.0000     -58.492196     -1591.6536 
   5   2.0000     -11.299360      -307.4712 
   6   2.0000     -11.249933      -306.1262 
   7   2.0000      -9.813274      -267.0328 
   8   2.0000      -7.429779      -202.1746 
   9   2.0000      -7.421096      -201.9383 
  10   2.0000      -7.420920      -201.9335 
  11   2.0000      -3.172255       -86.3215 
  12   2.0000      -3.168465       -86.2183 
  13   2.0000      -3.168307       -86.2140 
  14   2.0000      -3.158781       -85.9548 
  15   2.0000      -3.158778       -85.9547 
  16   2.0000      -1.073712       -29.2172 
  17   2.0000      -0.965339       -26.2682 
  18   2.0000      -0.824928       -22.4474 
  19   2.0000      -0.636984       -17.3332 
  20   2.0000      -0.599416       -16.3109 
  21   2.0000      -0.564003       -15.3473 
  22   2.0000      -0.517284       -14.0760 
  23   2.0000      -0.471954       -12.8425 
  24   2.0000      -0.395849       -10.7716 
  25   2.0000      -0.391324       -10.6485 
  26   0.0000       0.151881         4.1329 
  27   0.0000       0.181504         4.9390 
  28   0.0000       0.214483         5.8364 
  29   0.0000       0.216241         5.8842 
  30   0.0000       0.277605         7.5540 
  31   0.0000       0.282884         7.6977 
  32   0.0000       0.371956        10.1214 
  33   0.0000       0.518122        14.0988 
  34   0.0000       0.559186        15.2162 
  35   0.0000       0.570126        15.5139 
  36   0.0000       0.618356        16.8263 
*Only the first 10 virtual orbitals were printed.

                    ********************************
                    * MULLIKEN POPULATION ANALYSIS *
                    ********************************

-----------------------
MULLIKEN ATOMIC CHARGES
-----------------------
   0 C :   -0.056856
   1 C :   -0.106941
   2 Br:   -0.198877
   3 H :    0.052304
   4 H :    0.064059
   5 H :    0.055847
   6 H :    0.094361
   7 H :    0.096102
Sum of atomic charges:   -0.0000000

--------------------------------
MULLIKEN REDUCED ORBITAL CHARGES
--------------------------------
  0 C s       :     3.080535  s :     3.080535
      pz      :     1.026925  p :     2.939827
      px      :     0.910499
      py      :     1.002403
      dz2     :     0.010263  d :     0.036493
      dxz     :     0.005156
      dyz     :     0.004328
      dx2y2   :     0.007656
      dxy     :     0.009090

  1 C s       :     3.189123  s :     3.189123
      pz      :     1.071684  p :     2.872282
      px      :     0.831454
      py      :     0.969145
      dz2     :     0.008330  d :     0.045535
      dxz     :     0.004514
      dyz     :     0.012022
      dx2y2   :     0.008529
      dxy     :     0.012140

  2 Brs       :     7.970517  s :     7.970517
      pz      :     5.990970  p :    17.184038
      px      :     5.382759
      py      :     5.810309
      dz2     :     2.007980  d :    10.044322
      dxz     :     2.004372
      dyz     :     2.002498
      dx2y2   :     2.010532
      dxy     :     2.018940

  3 H s       :     0.922894  s :     0.922894
      pz      :     0.017323  p :     0.024802
      px      :     0.003616
      py      :     0.003863

  4 H s       :     0.910867  s :     0.910867
      pz      :     0.005540  p :     0.025074
      px      :     0.003007
      py      :     0.016527

  5 H s       :     0.919111  s :     0.919111
      pz      :     0.006304  p :     0.025043
      px      :     0.012667
      py      :     0.006071

  6 H s       :     0.881162  s :     0.881162
      pz      :     0.015003  p :     0.024477
      px      :     0.002267
      py      :     0.007207

  7 H s       :     0.879984  s :     0.879984
      pz      :     0.011635  p :     0.023914
      px      :     0.002779
      py      :     0.009499



                     *******************************
                     * LOEWDIN POPULATION ANALYSIS *
                     *******************************

----------------------
LOEWDIN ATOMIC CHARGES
----------------------
   0 C :   -0.054153
   1 C :   -0.062923
   2 Br:   -0.026215
   3 H :    0.028016
   4 H :    0.029961
   5 H :    0.030616
   6 H :    0.025177
   7 H :    0.029522

-------------------------------
LOEWDIN REDUCED ORBITAL CHARGES
-------------------------------
  0 C s       :     2.847266  s :     2.847266
      pz      :     1.061744  p :     3.125734
      px      :     1.015497
      py      :     1.048492
      dz2     :     0.022713  d :     0.081154
      dxz     :     0.011495
      dyz     :     0.009019
      dx2y2   :     0.017783
      dxy     :     0.020144

  1 C s       :     2.906626  s :     2.906626
      pz      :     1.095635  p :     3.063424
      px      :     0.951238
      py      :     1.016551
      dz2     :     0.017141  d :     0.092873
      dxz     :     0.008373
      dyz     :     0.025923
      dx2y2   :     0.017340
      dxy     :     0.024095

  2 Brs       :     7.816879  s :     7.816879
      pz      :     5.969471  p :    17.153380
      px      :     5.388131
      py      :     5.795778
      dz2     :     2.009479  d :    10.055957
      dxz     :     2.006017
      dyz     :     2.003355
      dx2y2   :     2.013848
      dxy     :     2.023257

  3 H s       :     0.908781  s :     0.908781
      pz      :     0.040101  p :     0.063203
      px      :     0.011409
      py      :     0.011693

  4 H s       :     0.905617  s :     0.905617
      pz      :     0.015161  p :     0.064423
      px      :     0.010009
      py      :     0.039253

  5 H s       :     0.905473  s :     0.905473
      pz      :     0.016763  p :     0.063911
      px      :     0.030765
      py      :     0.016383

  6 H s       :     0.905188  s :     0.905188
      pz      :     0.037344  p :     0.069635
      px      :     0.010691
      py      :     0.021600

  7 H s       :     0.903761  s :     0.903761
      pz      :     0.029021  p :     0.066718
      px      :     0.010963
      py      :     0.026734



                      *****************************
                      * MAYER POPULATION ANALYSIS *
                      *****************************

  NA   - Mulliken gross atomic population
  ZA   - Total nuclear charge
  QA   - Mulliken gross atomic charge
  VA   - Mayer's total valence
  BVA  - Mayer's bonded valence
  FA   - Mayer's free valence

  ATOM       NA         ZA         QA         VA         BVA        FA
  0 C      6.0569     6.0000    -0.0569     3.8949     3.8949    -0.0000
  1 C      6.1069     6.0000    -0.1069     3.8827     3.8827    -0.0000
  2 Br    35.1989    35.0000    -0.1989     0.9557     0.9557     0.0000
  3 H      0.9477     1.0000     0.0523     0.9771     0.9771    -0.0000
  4 H      0.9359     1.0000     0.0641     0.9861     0.9861    -0.0000
  5 H      0.9442     1.0000     0.0558     0.9782     0.9782     0.0000
  6 H      0.9056     1.0000     0.0944     0.9596     0.9596    -0.0000
  7 H      0.9039     1.0000     0.0961     0.9544     0.9544    -0.0000

  Mayer bond orders larger than 0.100000
B(  0-C ,  1-C ) :   0.9859 B(  0-C ,  3-H ) :   0.9878 B(  0-C ,  4-H ) :   0.9847 
B(  0-C ,  5-H ) :   0.9801 B(  1-C ,  2-Br) :   0.9663 B(  1-C ,  6-H ) :   0.9728 
B(  1-C ,  7-H ) :   0.9716 

-------
TIMINGS
-------

Total SCF time: 0 days 0 hours 0 min 3 sec 

Total time                  ....       3.219 sec
Sum of individual times     ....       3.000 sec  ( 93.2%)

SCF preparation             ....       0.015 sec  (  0.5%)
Fock matrix formation       ....       2.949 sec  ( 91.6%)
  Startup                   ....       0.001 sec  (  0.0% of F)
  Coulomb+Exchange Fock     ....       3.148 sec  (106.8% of F)
Diagonalization             ....       0.000 sec  (  0.0%)
Density matrix formation    ....       0.006 sec  (  0.2%)
Total Energy calculation    ....       0.002 sec  (  0.1%)
Population analysis         ....       0.003 sec  (  0.1%)
Orbital Transformation      ....       0.002 sec  (  0.1%)
Orbital Orthonormalization  ....       0.000 sec  (  0.0%)
DIIS solution               ....       0.014 sec  (  0.4%)
SOSCF solution              ....       0.009 sec  (  0.3%)
Finished LeanSCF after   3.2 sec

Maximum memory used throughout the entire LEANSCF-calculation: 8.9 MB

-------------------------   --------------------
FINAL SINGLE POINT ENERGY     -2650.686622165506
-------------------------   --------------------

------------------------------------------------------------------------------
                         ORCA SCF GRADIENT CALCULATION
------------------------------------------------------------------------------

Nuc. rep. gradient        (SHARK) ... done (  0.0 sec)
HCore & Overlap gradient  (SHARK) ... done (  0.0 sec)
Two-electron gradient     (SHARK) ... done (  1.4 sec)

------------------
CARTESIAN GRADIENT
------------------

   1   C   :    0.010055174    0.020093504    0.011038448
   2   C   :   -0.013398826   -0.035767070    0.008245287
   3   Br  :    0.004627940    0.006537662    0.001355831
   4   H   :   -0.002867310   -0.002650187   -0.013585071
   5   H   :    0.000715190   -0.014139634   -0.001945161
   6   H   :   -0.011602689    0.003830445    0.003973876
   7   H   :    0.006113016    0.009323620    0.007183506
   8   H   :    0.006357506    0.012771664   -0.016266717

Difference to translation invariance:
           :    0.0000000018    0.0000000040    0.0000000000

Difference to rotation invariance:
           :   -0.0000000560    0.0000000299   -0.0000000380

Norm of the Cartesian gradient     ...    0.0585887991
RMS gradient                       ...    0.0119593885
MAX gradient                       ...    0.0357670704

-------
TIMINGS
-------

Total SCF gradient time     ....        1.390 sec

Densities                   ....       0.000 sec  (  0.0%)
One electron gradient       ....       0.019 sec  (  1.4%)
Two electron gradient       ....       1.371 sec  ( 98.6%)

Maximum memory used throughout the entire SCFGRAD-calculation: 14.7 MB
------------------------------------------------------------------------------
                         ORCA GEOMETRY RELAXATION STEP
------------------------------------------------------------------------------

Reading the OPT-File                    .... done
Getting information on internals        .... done
Copying old internal coords+grads       .... done
Making the new internal coordinates     .... (2022 redundants) done
Validating the new internal coordinates .... (2022 redundants) done
Calculating the B-matrix                .... done
Calculating the G,G- and P matrices     .... done
Transforming gradient to internals      .... done
Projecting the internal gradient        .... done
Number of atoms                         ....   8
Number of internal coordinates          ....  25
Current Energy                          .... -2650.686622166 Eh
Current gradient norm                   ....     0.058588799 Eh/bohr
Maximum allowed component of the step   ....  0.300
Current trust radius                    ....  0.300
Evaluating the initial hessian          ....  (Almloef) done
Projecting the Hessian                  .... done
Forming the augmented Hessian           .... done
Diagonalizing the augmented Hessian     .... done
Last element of RFO vector              ....  0.973316964
Lowest eigenvalues of augmented Hessian:
 -0.006260633  0.013331072  0.094363122  0.125424040  0.131787631
Length of the computed step             ....  0.235755457
The final length of the internal step   ....  0.235755457
Converting the step to Cartesian space:
 Initial RMS(Int)=    0.0471510914
Transforming coordinates:
 Iter   0:  RMS(Cart)=    0.0539587644 RMS(Int)=    0.0469269280
 Iter   5:  RMS(Cart)=    0.0000000178 RMS(Int)=    0.0000000200
done
Storing new coordinates                 .... done

                                .--------------------.
          ----------------------|Geometry convergence|-------------------------
          Item                value                   Tolerance       Converged
          ---------------------------------------------------------------------
          RMS gradient        0.0084648045            0.0001000000      NO
          MAX gradient        0.0213142195            0.0003000000      NO
          RMS step            0.0471510914            0.0020000000      NO
          MAX step            0.1166266683            0.0040000000      NO
          -------------------------------------------------------------------------
          ........................................................
          Max(Bonds)      0.0341      Max(Angles)    2.93
          Max(Dihed)        6.68      Max(Improp)    0.00
          ---------------------------------------------------------------------

The optimization has not yet converged - more geometry cycles are needed


    ---------------------------------------------------------------------------
                         Redundant Internal Coordinates
                            (Angstroem and degrees)

        Definition                    Value    dE/dq     Step     New-Value
    ----------------------------------------------------------------------------
     1. B(C   1,C   0)                1.5117 -0.000643  0.0008    1.5126   
     2. B(Br  2,C   1)                1.9619  0.000853 -0.0017    1.9601   
     3. B(H   3,C   0)                1.1120  0.014054 -0.0220    1.0900   
     4. B(H   4,C   0)                1.1087  0.012702 -0.0196    1.0891   
     5. B(H   5,C   0)                1.1091  0.012586 -0.0195    1.0896   
     6. B(H   6,C   1)                1.1007  0.011088 -0.0166    1.0841   
     7. B(H   7,C   1)                1.1180  0.021314 -0.0341    1.0839   
     8. A(C   1,C   0,H   3)          110.51 -0.000848    0.44    110.95   
     9. A(H   3,C   0,H   4)          104.92 -0.004300    1.47    106.39   
    10. A(H   3,C   0,H   5)          107.56 -0.001704    0.34    107.90   
    11. A(C   1,C   0,H   5)          111.41  0.004119   -1.04    110.37   
    12. A(C   1,C   0,H   4)          113.23  0.002596   -0.49    112.74   
    13. A(H   4,C   0,H   5)          108.86 -0.000568   -0.53    108.33   
    14. A(H   6,C   1,H   7)          106.35 -0.001786    0.70    107.05   
    15. A(C   0,C   1,H   7)          111.00 -0.002843    0.86    111.86   
    16. A(Br  2,C   1,H   6)          102.78 -0.012029    1.31    104.09   
    17. A(Br  2,C   1,H   7)          101.96 -0.010052    2.09    104.05   
    18. A(C   0,C   1,H   6)          115.53  0.006139   -1.39    114.14   
    19. A(C   0,C   1,Br  2)          117.77  0.017224   -2.93    114.83   
    20. D(Br  2,C   1,C   0,H   4)     30.40 -0.002536    4.68     35.08   
    21. D(Br  2,C   1,C   0,H   5)    153.51  0.001821    2.80    156.31   
    22. D(H   6,C   1,C   0,H   3)    151.14 -0.001856    4.84    155.98   
    23. D(H   6,C   1,C   0,H   4)    -91.50 -0.006196    6.68    -84.82   
    24. D(H   6,C   1,C   0,H   5)     31.61 -0.001839    4.80     36.41   
    25. D(Br  2,C   1,C   0,H   3)    -86.97  0.001804    2.84    -84.13   
    ----------------------------------------------------------------------------

Geometry step timings:
Preparation and reading OPT file:      0.000 s ( 2.017 %)
Internal coordinates            :      0.000 s ( 2.354 %)
B/P matrices and projection     :      0.000 s (11.769 %)
Hessian update/contruction      :      0.001 s (42.434 %)
Making the step                 :      0.000 s ( 8.608 %)
Converting the step to Cartesian:      0.000 s ( 2.488 %)
Storing new data                :      0.000 s (12.845 %)
Checking convergence            :      0.000 s ( 2.959 %)
Final printing                  :      0.000 s (14.526 %)
Total time                      :      0.001 s

Time for energy+gradient        :      5.265 s
Time for complete geometry iter :      5.339 s

         *************************************************************
         *                GEOMETRY OPTIMIZATION CYCLE   2            *
         *************************************************************
---------------------------------
CARTESIAN COORDINATES (ANGSTROEM)
---------------------------------
  C     14.068736  -11.507565   -0.116460
  C     15.311025  -10.679995    0.128002
  Br    16.990372  -11.690569    0.102127
  H     13.892457  -11.640073   -1.183954
  H     14.138598  -12.507311    0.309799
  H     13.195026  -11.014469    0.308679
  H     15.324104  -10.173492    1.086367
  H     15.447888   -9.921870   -0.634479

----------------------------
CARTESIAN COORDINATES (A.U.)
----------------------------
  NO LB      ZA    FRAG     MASS         X           Y           Z
   0 C     6.0000    0    12.011   26.586058  -21.746146   -0.220077
   1 C     6.0000    0    12.011   28.933645  -20.182266    0.241889
   2 Br   35.0000    0    79.900   32.107150  -22.091975    0.192992
   3 H     1.0000    0     1.008   26.252940  -21.996550   -2.237350
   4 H     1.0000    0     1.008   26.718079  -23.635393    0.585435
   5 H     1.0000    0     1.008   24.934986  -20.814330    0.583318
   6 H     1.0000    0     1.008   28.958359  -19.225115    2.052936
   7 H     1.0000    0     1.008   29.192277  -18.749618   -1.198992

--------------------------------
INTERNAL COORDINATES (ANGSTROEM)
--------------------------------
 C      0   0   0     0.000000000000     0.00000000     0.00000000
 C      1   0   0     1.512585778261     0.00000000     0.00000000
 Br     2   1   0     1.960136374340   114.79926675     0.00000000
 H      1   2   3     1.090035476317   110.95324371   275.89324614
 H      1   2   3     1.089068545024   112.72487940    35.09322570
 H      1   2   3     1.089612606733   110.35944847   156.33869906
 H      2   1   3     1.084056979760   114.10556366   240.06241034
 H      2   1   3     1.083910497652   111.88152881   118.30730677

---------------------------
INTERNAL COORDINATES (A.U.)
---------------------------
 C      0   0   0     0.000000000000     0.00000000     0.00000000
 C      1   0   0     2.858372874977     0.00000000     0.00000000
 Br     2   1   0     3.704120932639   114.79926675     0.00000000
 H      1   2   3     2.059868526498   110.95324371   275.89324614
 H      1   2   3     2.058041291164   112.72487940    35.09322570
 H      1   2   3     2.059069418793   110.35944847   156.33869906
 H      2   1   3     2.048570805311   114.10556366   240.06241034
 H      2   1   3     2.048293994244   111.88152881   118.30730677

------------------------------------------------------------------------------
                   ___                                                        
                  /   \      - P O W E R E D   B Y -                         
                 /     \                                                     
                 |  |  |   _    _      __       _____    __    __             
                 |  |  |  | |  | |    /  \     |  _  \  |  |  /  |          
                  \  \/   | |  | |   /    \    | | | |  |  | /  /          
                 / \  \   | |__| |  /  /\  \   | |_| |  |  |/  /          
                |  |  |   |  __  | /  /__\  \  |    /   |      \           
                |  |  |   | |  | | |   __   |  |    \   |  |\   \          
                \     /   | |  | | |  |  |  |  | |\  \  |  | \   \       
                 \___/    |_|  |_| |__|  |__|  |_| \__\ |__|  \__/        
                                                                              
                      - O R C A' S   B I G   F R I E N D -                    
                                      &                                       
                       - I N T E G R A L  F E E D E R -                       
                                                                              
 v1 FN, 2020, v2 2021, v3 2022-2024                                           
------------------------------------------------------------------------------


----------------------
SHARK INTEGRAL PACKAGE
----------------------

Number of atoms                             ...      8
Number of basis functions                   ...     85
Number of shells                            ...     39
Maximum angular momentum                    ...      2
Integral batch strategy                     ... SHARK/LIBINT Hybrid
RI-J (if used) integral strategy            ... SPLIT-RIJ (Revised 2003 algorithm where possible)
Printlevel                                  ...      1
Contraction scheme used                     ... SEGMENTED contraction
Prescreening option                         ... SCHWARTZ
   Thresh                                   ... 2.500e-11
   Tcut                                     ... 2.500e-12
   Tpresel                                  ... 2.500e-12 
Coulomb Range Separation                    ... NOT USED
Exchange Range Separation                   ... NOT USED
Multipole approximations                    ... NOT USED
Finite Nucleus Model                        ... NOT USED
CABS basis                                  ... NOT available
Auxiliary Coulomb fitting basis             ... NOT available
Auxiliary J/K fitting basis                 ... NOT available
Auxiliary Correlation fitting basis         ... NOT available
Auxiliary 'external' fitting basis          ... NOT available

Checking pre-screening integrals            ... done (  0.0 sec) Dimension = 39
   => SHARK Basis and OBASIS are compatible. Storing Pre-screening
Shell pair information
Shell pair cut-off parameter TPreSel        ...   2.5e-12
Total number of shell pairs                 ...       780
Shell pairs after pre-screening             ...       763
Total number of primitive shell pairs       ...      3241
Primitive shell pairs kept                  ...      2551
          la=0 lb=0:    226 shell pairs
          la=1 lb=0:    265 shell pairs
          la=1 lb=1:     89 shell pairs
          la=2 lb=0:    104 shell pairs
          la=2 lb=1:     64 shell pairs
          la=2 lb=2:     15 shell pairs

Checking whether 4 symmetric matrices of dimension 85 fit in memory
:Max Core in MB      =   4096.00
 MB in use           =      2.11
 MB left             =   4093.89
 MB needed           =      0.11
 Data fit in memory  = YES
Calculating Nuclear repulsion               ... done (  0.0 sec) ENN=    163.060854743192 Eh

Diagonalization of the overlap matrix:
Smallest eigenvalue                        ... 3.777e-03
Time for diagonalization                   ...    0.001 sec
Threshold for overlap eigenvalues          ... 1.000e-07
Number of eigenvalues below threshold      ... 0
Time for construction of square roots      ...    0.000 sec
Total time needed                          ...    0.001 sec

-------------------
DFT GRID GENERATION
-------------------

General Integration Accuracy     IntAcc      ... 4.388
Radial Grid Type                 RadialGrid  ... OptM3 with GC (2021)
Angular Grid (max. ang.)         AngularGrid ... 4 (Lebedev-302)
Angular grid pruning method      GridPruning ... 4 (adaptive)
Weight generation scheme         WeightScheme... mBecke (2022)
Basis function cutoff            BFCut       ... 1.0000e-11
Integration weight cutoff        WCut        ... 1.0000e-14
Partially contracted basis set               ... off
Rotationally invariant grid construction     ... off
Angular grids for H and He will be reduced by one unit
Core-polarized basis detected: some atoms will have their core
                               angular grid increased.

Total number of grid points                  ...    39723
Total number of batches                      ...      625
Average number of points per batch           ...       63
Average number of grid points per atom       ...     4965
Grids setup in   0.2 sec
Initializing property integral containers    ... done (  0.0 sec)

SHARK setup successfully completed in   0.2 seconds

Maximum memory used throughout the entire STARTUP-calculation: 17.1 MB
Occupation numbers will be reassigned to an Aufbau configuration
             **** ENERGY FILE WAS UPDATED (bromoethane.en.tmp) ****
Finished Guess after   0.0 sec
Maximum memory used throughout the entire GUESS-calculation: 5.4 MB
----------------------------------------D-I-I-S--------------------------------------------
Iteration    Energy (Eh)           Delta-E    RMSDP     MaxDP     DIISErr   Damp  Time(sec)
-------------------------------------------------------------------------------------------
               ***  Starting incremental Fock matrix formation  ***
    1    -2650.6888905354962844     0.00e+00  2.86e-04  3.56e-03  1.52e-02  0.700   0.3
    2    -2650.6892643434057391    -3.74e-04  2.58e-04  3.23e-03  1.26e-02  0.700   0.3
                               ***Turning on AO-DIIS***
    3    -2650.6895766866614395    -3.12e-04  2.47e-04  3.11e-03  1.02e-02  0.700   0.4
    4    -2650.6898273060214706    -2.51e-04  6.92e-04  8.40e-03  7.71e-03  0.000   0.3
                              *** Initializing SOSCF ***
---------------------------------------S-O-S-C-F--------------------------------------
Iteration    Energy (Eh)           Delta-E    RMSDP     MaxDP     MaxGrad    Time(sec)
--------------------------------------------------------------------------------------
    5    -2650.6905998124429971    -7.73e-04  1.19e-04  1.79e-03  9.99e-04     0.3
               *** Restarting incremental Fock matrix formation ***
    6    -2650.6906137918881541    -1.40e-05  8.77e-05  1.47e-03  5.75e-04     0.3
    7    -2650.6906179606744445    -4.17e-06  8.53e-05  1.36e-03  2.96e-04     0.6
    8    -2650.6906193835097838    -1.42e-06  6.95e-06  9.94e-05  2.89e-05     0.3
    9    -2650.6906194124794638    -2.90e-08  2.44e-06  3.36e-05  1.60e-05     0.2
   10    -2650.6906194197413242    -7.26e-09  1.04e-06  8.34e-06  3.55e-06     0.3
                 **** Energy Check signals convergence ****

               *****************************************************
               *                     SUCCESS                       *
               *           SCF CONVERGED AFTER  10 CYCLES          *
               *****************************************************

             **** ENERGY FILE WAS UPDATED (bromoethane.en.tmp) ****

----------------
TOTAL SCF ENERGY
----------------

Total Energy       :      -2650.69061942101507 Eh          -72128.95872 eV

Components:
Nuclear Repulsion  :        163.06085474319167 Eh            4437.11144 eV
Electronic Energy  :      -2813.75147416420668 Eh          -76566.07016 eV
One Electron Energy:      -4012.56770183937078 Eh         -109187.51815 eV
Two Electron Energy:       1198.81622767516410 Eh           32621.44800 eV

Virial components:
Potential Energy   :      -5300.95672710873259 Eh         -144246.36589 eV
Kinetic Energy     :       2650.26610768771752 Eh           72117.40717 eV
Virial Ratio       :          2.00016017702225

---------------
SCF CONVERGENCE
---------------

  Last Energy change         ...    7.2619e-09  Tolerance :   1.0000e-08
  Last MAX-Density change    ...    8.3438e-06  Tolerance :   1.0000e-07
  Last RMS-Density change    ...    1.0403e-06  Tolerance :   5.0000e-09
  Last DIIS Error            ...    9.9869e-04  Tolerance :   5.0000e-07
  Last Orbital Gradient      ...    3.5507e-06  Tolerance :   1.0000e-05
  Last Orbital Rotation      ...    6.8833e-06  Tolerance :   1.0000e-05


Total SCF time: 0 days 0 hours 0 min 3 sec 
Finished LeanSCF after   3.5 sec

Maximum memory used throughout the entire LEANSCF-calculation: 8.9 MB

-------------------------   --------------------
FINAL SINGLE POINT ENERGY     -2650.690619421015
-------------------------   --------------------

------------------------------------------------------------------------------
                         ORCA SCF GRADIENT CALCULATION
------------------------------------------------------------------------------

Nuc. rep. gradient        (SHARK) ... done (  0.0 sec)
HCore & Overlap gradient  (SHARK) ... done (  0.0 sec)
Two-electron gradient     (SHARK) ... done (  1.4 sec)

------------------
CARTESIAN GRADIENT
------------------

   1   C   :    0.000306237    0.007622194    0.004300374
   2   C   :   -0.005897310   -0.008173327   -0.000671421
   3   Br  :    0.002152752    0.002583570    0.001746092
   4   H   :   -0.000770560   -0.000406428    0.000578715
   5   H   :   -0.000476643   -0.001603139   -0.004176677
   6   H   :    0.000365614   -0.002061532   -0.000369650
   7   H   :    0.002912841    0.002953831   -0.002613997
   8   H   :    0.001407068   -0.000915167    0.001206566

Difference to translation invariance:
           :   -0.0000000011    0.0000000017   -0.0000000000

Difference to rotation invariance:
           :   -0.0000005779   -0.0000010033   -0.0000003634

Norm of the Cartesian gradient     ...    0.0157240920
RMS gradient                       ...    0.0032096668
MAX gradient                       ...    0.0081733268

-------
TIMINGS
-------

Total SCF gradient time     ....        1.450 sec

Densities                   ....       0.000 sec  (  0.0%)
One electron gradient       ....       0.032 sec  (  2.2%)
Two electron gradient       ....       1.418 sec  ( 97.8%)

Maximum memory used throughout the entire SCFGRAD-calculation: 14.7 MB
------------------------------------------------------------------------------
                         ORCA GEOMETRY RELAXATION STEP
------------------------------------------------------------------------------

Reading the OPT-File                    .... done
Getting information on internals        .... done
Copying old internal coords+grads       .... done
Making the new internal coordinates     .... (2022 redundants) done
Validating the new internal coordinates .... (2022 redundants) done
Calculating the B-matrix                .... done
Calculating the G,G- and P matrices     .... done
Transforming gradient to internals      .... done
Projecting the internal gradient        .... done
Number of atoms                         ....   8
Number of internal coordinates          ....  25
Current Energy                          .... -2650.690619421 Eh
Current gradient norm                   ....     0.015724092 Eh/bohr
Maximum allowed component of the step   ....  0.300
Current trust radius                    ....  0.300
Updating the Hessian (BFGS)             .... done
Forming the augmented Hessian           .... done
Diagonalizing the augmented Hessian     .... done
Last element of RFO vector              ....  0.944507636
Lowest eigenvalues of augmented Hessian:
 -0.002206330  0.011986038  0.091202790  0.120178212  0.131102002
Length of the computed step             ....  0.347789101
Warning: the length of the step is outside the trust region - taking restricted step instead
The input lambda is                     ....     0.009505
   iter:   5  x=    0.003400  g=  318.404619 f(x)=     0.696858
   iter:  10  x=   -0.004307  g=   11.741030 f(x)=     0.000261
The output lambda is                    ....    -0.004307 (13 iterations)
The final length of the internal step   ....  0.300000000
Converting the step to Cartesian space:
 Initial RMS(Int)=    0.0600000000
Transforming coordinates:
 Iter   0:  RMS(Cart)=    0.0661589475 RMS(Int)=    0.0595019828
 Iter   5:  RMS(Cart)=    0.0000000748 RMS(Int)=    0.0000000825
done
Storing new coordinates                 .... done
The predicted energy change is          ....    -0.001187426
Previously predicted energy change      ....    -0.003304302
Actually observed energy change         ....    -0.003997256
Ratio of predicted to observed change   ....     1.209712693
New trust radius                        ....     0.450000000

                                .--------------------.
          ----------------------|Geometry convergence|-------------------------
          Item                value                   Tolerance       Converged
          ---------------------------------------------------------------------
          Energy change      -0.0039972555            0.0000050000      NO
          RMS gradient        0.0027070191            0.0001000000      NO
          MAX gradient        0.0076903689            0.0003000000      NO
          RMS step            0.0600000000            0.0020000000      NO
          MAX step            0.1482203477            0.0040000000      NO
          -------------------------------------------------------------------------
          ........................................................
          Max(Bonds)      0.0040      Max(Angles)    2.26
          Max(Dihed)        8.49      Max(Improp)    0.00
          ---------------------------------------------------------------------

The optimization has not yet converged - more geometry cycles are needed


    ---------------------------------------------------------------------------
                         Redundant Internal Coordinates
                            (Angstroem and degrees)

        Definition                    Value    dE/dq     Step     New-Value
    ----------------------------------------------------------------------------
     1. B(C   1,C   0)                1.5126 -0.001524  0.0027    1.5153   
     2. B(Br  2,C   1)                1.9601  0.000489 -0.0016    1.9585   
     3. B(H   3,C   0)                1.0900 -0.000393 -0.0035    1.0865   
     4. B(H   4,C   0)                1.0891 -0.000194 -0.0035    1.0856   
     5. B(H   5,C   0)                1.0896 -0.001370 -0.0011    1.0885   
     6. B(H   6,C   1)                1.0841 -0.000896 -0.0015    1.0825   
     7. B(H   7,C   1)                1.0839 -0.001311 -0.0040    1.0799   
     8. A(C   1,C   0,H   3)          110.95 -0.000114    0.29    111.25   
     9. A(H   3,C   0,H   4)          106.38 -0.002911    1.41    107.80   
    10. A(H   3,C   0,H   5)          107.91 -0.001012    0.33    108.23   
    11. A(C   1,C   0,H   5)          110.36  0.002011   -0.87    109.49   
    12. A(C   1,C   0,H   4)          112.72  0.002528   -0.70    112.02   
    13. A(H   4,C   0,H   5)          108.31 -0.000822   -0.31    108.00   
    14. A(H   6,C   1,H   7)          107.07 -0.002428    0.92    107.99   
    15. A(C   0,C   1,H   7)          111.88 -0.000788    0.52    112.40   
    16. A(Br  2,C   1,H   6)          104.02 -0.005862    1.21    105.22   
    17. A(Br  2,C   1,H   7)          104.07 -0.004103    1.50    105.57   
    18. A(C   0,C   1,H   6)          114.11  0.004067   -1.35    112.76   
    19. A(C   0,C   1,Br  2)          114.80  0.007690   -2.26    112.54   
    20. D(Br  2,C   1,C   0,H   4)     35.09 -0.002249    7.08     42.17   
    21. D(Br  2,C   1,C   0,H   5)    156.34 -0.000127    5.50    161.84   
    22. D(H   6,C   1,C   0,H   3)    155.96 -0.001470    6.96    162.91   
    23. D(H   6,C   1,C   0,H   4)    -84.84 -0.003563    8.49    -76.35   
    24. D(H   6,C   1,C   0,H   5)     36.40 -0.001441    6.92     43.32   
    25. D(Br  2,C   1,C   0,H   3)    -84.11 -0.000156    5.54    -78.56   
    ----------------------------------------------------------------------------

Geometry step timings:
Preparation and reading OPT file:      0.000 s ( 2.021 %)
Internal coordinates            :      0.000 s ( 2.817 %)
B/P matrices and projection     :      0.000 s (12.247 %)
Hessian update/contruction      :      0.001 s (37.477 %)
Making the step                 :      0.000 s (12.554 %)
Converting the step to Cartesian:      0.000 s ( 2.449 %)
Storing new data                :      0.000 s (12.554 %)
Checking convergence            :      0.000 s ( 3.552 %)
Final printing                  :      0.000 s (14.268 %)
Total time                      :      0.002 s

Time for energy+gradient        :      5.585 s
Time for complete geometry iter :      5.660 s

         *************************************************************
         *                GEOMETRY OPTIMIZATION CYCLE   3            *
         *************************************************************
---------------------------------
CARTESIAN COORDINATES (ANGSTROEM)
---------------------------------
  C     14.078264  -11.510121   -0.123057
  C     15.311187  -10.665998    0.129112
  Br    16.965692  -11.709670    0.033349
  H     13.940228  -11.698328   -1.184185
  H     14.133183  -12.470582    0.379918
  H     13.198481  -10.987030    0.247394
  H     15.316651  -10.218633    1.114843
  H     15.424520   -9.874982   -0.597293

----------------------------
CARTESIAN COORDINATES (A.U.)
----------------------------
  NO LB      ZA    FRAG     MASS         X           Y           Z
   0 C     6.0000    0    12.011   26.604063  -21.750976   -0.232544
   1 C     6.0000    0    12.011   28.933951  -20.155816    0.243986
   2 Br   35.0000    0    79.900   32.060512  -22.128070    0.063020
   3 H     1.0000    0     1.008   26.343214  -22.106636   -2.237786
   4 H     1.0000    0     1.008   26.707844  -23.565984    0.717941
   5 H     1.0000    0     1.008   24.941514  -20.762479    0.467507
   6 H     1.0000    0     1.008   28.944275  -19.310418    2.106748
   7 H     1.0000    0     1.008   29.148119  -18.661012   -1.128721

--------------------------------
INTERNAL COORDINATES (ANGSTROEM)
--------------------------------
 C      0   0   0     0.000000000000     0.00000000     0.00000000
 C      1   0   0     1.515332215614     0.00000000     0.00000000
 Br     2   1   0     1.958521699995   112.47930913     0.00000000
 H      1   2   3     1.086493944586   111.24712160   281.47287295
 H      1   2   3     1.085580235632   111.99880848    42.19042342
 H      1   2   3     1.088520241141   109.46802785   161.89755214
 H      2   1   3     1.082511311226   112.69663908   241.40394916
 H      2   1   3     1.079914544168   112.42553506   119.04208995

---------------------------
INTERNAL COORDINATES (A.U.)
---------------------------
 C      0   0   0     0.000000000000     0.00000000     0.00000000
 C      1   0   0     2.863562889418     0.00000000     0.00000000
 Br     2   1   0     3.701069640332   112.47930913     0.00000000
 H      1   2   3     2.053176001432   111.24712160   281.47287295
 H      1   2   3     2.051449341742   111.99880848    42.19042342
 H      1   2   3     2.057005146986   109.46802785   161.89755214
 H      2   1   3     2.045649915089   112.69663908   241.40394916
 H      2   1   3     2.040742736515   112.42553506   119.04208995

------------------------------------------------------------------------------
                   ___                                                        
                  /   \      - P O W E R E D   B Y -                         
                 /     \                                                     
                 |  |  |   _    _      __       _____    __    __             
                 |  |  |  | |  | |    /  \     |  _  \  |  |  /  |          
                  \  \/   | |  | |   /    \    | | | |  |  | /  /          
                 / \  \   | |__| |  /  /\  \   | |_| |  |  |/  /          
                |  |  |   |  __  | /  /__\  \  |    /   |      \           
                |  |  |   | |  | | |   __   |  |    \   |  |\   \          
                \     /   | |  | | |  |  |  |  | |\  \  |  | \   \       
                 \___/    |_|  |_| |__|  |__|  |_| \__\ |__|  \__/        
                                                                              
                      - O R C A' S   B I G   F R I E N D -                    
                                      &                                       
                       - I N T E G R A L  F E E D E R -                       
                                                                              
 v1 FN, 2020, v2 2021, v3 2022-2024                                           
------------------------------------------------------------------------------


----------------------
SHARK INTEGRAL PACKAGE
----------------------

Number of atoms                             ...      8
Number of basis functions                   ...     85
Number of shells                            ...     39
Maximum angular momentum                    ...      2
Integral batch strategy                     ... SHARK/LIBINT Hybrid
RI-J (if used) integral strategy            ... SPLIT-RIJ (Revised 2003 algorithm where possible)
Printlevel                                  ...      1
Contraction scheme used                     ... SEGMENTED contraction
Prescreening option                         ... SCHWARTZ
   Thresh                                   ... 2.500e-11
   Tcut                                     ... 2.500e-12
   Tpresel                                  ... 2.500e-12 
Coulomb Range Separation                    ... NOT USED
Exchange Range Separation                   ... NOT USED
Multipole approximations                    ... NOT USED
Finite Nucleus Model                        ... NOT USED
CABS basis                                  ... NOT available
Auxiliary Coulomb fitting basis             ... NOT available
Auxiliary J/K fitting basis                 ... NOT available
Auxiliary Correlation fitting basis         ... NOT available
Auxiliary 'external' fitting basis          ... NOT available

Checking pre-screening integrals            ... done (  0.0 sec) Dimension = 39
   => SHARK Basis and OBASIS are compatible. Storing Pre-screening
Shell pair information
Shell pair cut-off parameter TPreSel        ...   2.5e-12
Total number of shell pairs                 ...       780
Shell pairs after pre-screening             ...       763
Total number of primitive shell pairs       ...      3241
Primitive shell pairs kept                  ...      2554
          la=0 lb=0:    226 shell pairs
          la=1 lb=0:    265 shell pairs
          la=1 lb=1:     89 shell pairs
          la=2 lb=0:    104 shell pairs
          la=2 lb=1:     64 shell pairs
          la=2 lb=2:     15 shell pairs

Checking whether 4 symmetric matrices of dimension 85 fit in memory
:Max Core in MB      =   4096.00
 MB in use           =      2.11
 MB left             =   4093.89
 MB needed           =      0.11
 Data fit in memory  = YES
Calculating Nuclear repulsion               ... done (  0.0 sec) ENN=    163.754383579239 Eh

Diagonalization of the overlap matrix:
Smallest eigenvalue                        ... 3.793e-03
Time for diagonalization                   ...    0.001 sec
Threshold for overlap eigenvalues          ... 1.000e-07
Number of eigenvalues below threshold      ... 0
Time for construction of square roots      ...    0.000 sec
Total time needed                          ...    0.001 sec

-------------------
DFT GRID GENERATION
-------------------

General Integration Accuracy     IntAcc      ... 4.388
Radial Grid Type                 RadialGrid  ... OptM3 with GC (2021)
Angular Grid (max. ang.)         AngularGrid ... 4 (Lebedev-302)
Angular grid pruning method      GridPruning ... 4 (adaptive)
Weight generation scheme         WeightScheme... mBecke (2022)
Basis function cutoff            BFCut       ... 1.0000e-11
Integration weight cutoff        WCut        ... 1.0000e-14
Partially contracted basis set               ... off
Rotationally invariant grid construction     ... off
Angular grids for H and He will be reduced by one unit
Core-polarized basis detected: some atoms will have their core
                               angular grid increased.

Total number of grid points                  ...    39725
Total number of batches                      ...      624
Average number of points per batch           ...       63
Average number of grid points per atom       ...     4966
Grids setup in   0.2 sec
Initializing property integral containers    ... done (  0.0 sec)

SHARK setup successfully completed in   0.2 seconds

Maximum memory used throughout the entire STARTUP-calculation: 17.1 MB
Occupation numbers will be reassigned to an Aufbau configuration
             **** ENERGY FILE WAS UPDATED (bromoethane.en.tmp) ****
Finished Guess after   0.0 sec
Maximum memory used throughout the entire GUESS-calculation: 5.4 MB
----------------------------------------D-I-I-S--------------------------------------------
Iteration    Energy (Eh)           Delta-E    RMSDP     MaxDP     DIISErr   Damp  Time(sec)
-------------------------------------------------------------------------------------------
               ***  Starting incremental Fock matrix formation  ***
    1    -2650.6899631065284666     0.00e+00  2.33e-04  4.16e-03  2.09e-02  0.700   0.3
    2    -2650.6904154783874219    -4.52e-04  2.21e-04  3.77e-03  1.73e-02  0.700   0.3
                               ***Turning on AO-DIIS***
    3    -2650.6908018854715010    -3.86e-04  2.30e-04  3.76e-03  1.39e-02  0.700   0.3
[...]

Convergence Tolerance:
 Convergence Check Mode ConvCheckMode   .... Total+1el-Energy
 Convergence forced     ConvForced      .... 0
 Energy Change          TolE            ....  1.000e-08 Eh
 1-El. energy change                    ....  1.000e-05 Eh
 Orbital Gradient       TolG            ....  1.000e-05
 Orbital Rotation angle TolX            ....  1.000e-05
 DIIS Error             TolErr          ....  5.000e-07

---------------------
INITIAL GUESS: MOREAD
---------------------
Guess MOs are being read from file: bromoethane.gbw
Input Geometry matches current geometry (good)
Input basis set matches current basis set (good)
Occupation numbers will be reassigned to an Aufbau configuration
MOs were renormalized
MOs were reorthogonalized (Cholesky)
                      ------------------
                      INITIAL GUESS DONE (   0.0 sec)
                      ------------------
             **** ENERGY FILE WAS UPDATED (bromoethane.en.tmp) ****
Finished Guess after   0.0 sec
Maximum memory used throughout the entire GUESS-calculation: 5.4 MB

-------------------------------------------------------------------------------------------
                                      ORCA LEAN-SCF
                              memory conserving SCF solver
-------------------------------------------------------------------------------------------

----------------------------------------D-I-I-S--------------------------------------------
Iteration    Energy (Eh)           Delta-E    RMSDP     MaxDP     DIISErr   Damp  Time(sec)
-------------------------------------------------------------------------------------------
               ***  Starting incremental Fock matrix formation  ***
                              *** Initializing SOSCF ***
---------------------------------------S-O-S-C-F--------------------------------------
Iteration    Energy (Eh)           Delta-E    RMSDP     MaxDP     MaxGrad    Time(sec)
--------------------------------------------------------------------------------------
    1    -2650.6936429716015482     0.00e+00  1.03e-05  1.37e-04  1.24e-05     0.3
               *** Restarting incremental Fock matrix formation ***
    2    -2650.6936431137373802    -1.42e-07  5.20e-06  8.84e-05  2.09e-05     0.3
    3    -2650.6936431452545548    -3.15e-08  3.71e-06  7.39e-05  9.81e-06     0.3
    4    -2650.6936431509416252    -5.69e-09  7.54e-07  9.61e-06  2.66e-06     0.2
                 **** Energy Check signals convergence ****

               *****************************************************
               *                     SUCCESS                       *
               *           SCF CONVERGED AFTER   4 CYCLES          *
               *****************************************************

             **** ENERGY FILE WAS UPDATED (bromoethane.en.tmp) ****

----------------
TOTAL SCF ENERGY
----------------

Total Energy       :      -2650.69364315156281 Eh          -72129.04100 eV

Components:
Nuclear Repulsion  :        163.88621872978126 Eh            4459.57073 eV
Electronic Energy  :      -2814.57986188134419 Eh          -76588.61173 eV
One Electron Energy:      -4014.22120258097175 Eh         -109232.51220 eV
Two Electron Energy:       1199.64134069962756 Eh           32643.90046 eV

Virial components:
Potential Energy   :      -5300.95050999137402 Eh         -144246.19671 eV
Kinetic Energy     :       2650.25686683981121 Eh           72117.15571 eV
Virial Ratio       :          2.00016480527500

---------------
SCF CONVERGENCE
---------------

  Last Energy change         ...    5.6871e-09  Tolerance :   1.0000e-08
  Last MAX-Density change    ...    9.6077e-06  Tolerance :   1.0000e-07
  Last RMS-Density change    ...    7.5399e-07  Tolerance :   5.0000e-09
  Last DIIS Error            ...    1.2053e-04  Tolerance :   5.0000e-07
  Last Orbital Gradient      ...    2.6574e-06  Tolerance :   1.0000e-05
  Last Orbital Rotation      ...    6.1220e-06  Tolerance :   1.0000e-05


----------------
ORBITAL ENERGIES
----------------

  NO   OCC          E(Eh)            E(eV) 
   0   2.0000    -489.952506    -13332.2855 
   1   2.0000     -65.121137     -1772.0362 
   2   2.0000     -58.493133     -1591.6791 
   3   2.0000     -58.491603     -1591.6374 
   4   2.0000     -58.491590     -1591.6371 
   5   2.0000     -11.294722      -307.3450 
   6   2.0000     -11.241966      -305.9094 
   7   2.0000      -9.812681      -267.0166 
   8   2.0000      -7.429129      -202.1569 
   9   2.0000      -7.420522      -201.9227 
  10   2.0000      -7.420425      -201.9200 
  11   2.0000      -3.171582       -86.3031 
  12   2.0000      -3.167794       -86.2001 
  13   2.0000      -3.167710       -86.1978 
  14   2.0000      -3.158295       -85.9416 
  15   2.0000      -3.158294       -85.9416 
  16   2.0000      -1.078933       -29.3592 
  17   2.0000      -0.964526       -26.2461 
  18   2.0000      -0.831482       -22.6258 
  19   2.0000      -0.648206       -17.6386 
  20   2.0000      -0.602914       -16.4061 
  21   2.0000      -0.559143       -15.2151 
  22   2.0000      -0.528100       -14.3703 
  23   2.0000      -0.473878       -12.8949 
  24   2.0000      -0.394940       -10.7469 
  25   2.0000      -0.394049       -10.7226 
  26   0.0000       0.152307         4.1445 
  27   0.0000       0.193599         5.2681 
  28   0.0000       0.223685         6.0868 
  29   0.0000       0.231969         6.3122 
  30   0.0000       0.257913         7.0182 
  31   0.0000       0.270555         7.3622 
  32   0.0000       0.363889         9.9019 
  33   0.0000       0.511181        13.9099 
  34   0.0000       0.564160        15.3516 
  35   0.0000       0.569750        15.5037 
  36   0.0000       0.625627        17.0242 
*Only the first 10 virtual orbitals were printed.

                    ********************************
                    * MULLIKEN POPULATION ANALYSIS *
                    ********************************

-----------------------
MULLIKEN ATOMIC CHARGES
-----------------------
   0 C :   -0.034206
   1 C :   -0.084269
   2 Br:   -0.203597
   3 H :    0.052085
   4 H :    0.052098
   5 H :    0.043877
   6 H :    0.087008
   7 H :    0.087005
Sum of atomic charges:   -0.0000000

--------------------------------
MULLIKEN REDUCED ORBITAL CHARGES
--------------------------------
  0 C s       :     3.057054  s :     3.057054
      pz      :     1.031265  p :     2.939269
      px      :     0.912816
      py      :     0.995188
      dz2     :     0.009712  d :     0.037883
      dxz     :     0.002499
      dyz     :     0.008817
      dx2y2   :     0.005476
      dxy     :     0.011380

  1 C s       :     3.169450  s :     3.169450
      pz      :     1.059580  p :     2.868298
      px      :     0.827085
      py      :     0.981633
      dz2     :     0.010568  d :     0.046521
      dxz     :     0.004449
      dyz     :     0.010198
      dx2y2   :     0.009108
      dxy     :     0.012198

  2 Brs       :     7.969668  s :     7.969668
      pz      :     5.968488  p :    17.190006
      px      :     5.442582
      py      :     5.778936
      dz2     :     2.007522  d :    10.043923
      dxz     :     2.005206
      dyz     :     2.002650
      dx2y2   :     2.008533
      dxy     :     2.020012

  3 H s       :     0.922339  s :     0.922339
      pz      :     0.016996  p :     0.025576
      px      :     0.003288
      py      :     0.005292

  4 H s       :     0.922326  s :     0.922326
      pz      :     0.009033  p :     0.025576
      px      :     0.003296
      py      :     0.013247

  5 H s       :     0.930403  s :     0.930403
      pz      :     0.004473  p :     0.025719
      px      :     0.013365
      py      :     0.007881

  6 H s       :     0.888060  s :     0.888060
      pz      :     0.017790  p :     0.024932
      px      :     0.002596
      py      :     0.004546

  7 H s       :     0.888063  s :     0.888063
      pz      :     0.009478  p :     0.024933
      px      :     0.002618
      py      :     0.012837



                     *******************************
                     * LOEWDIN POPULATION ANALYSIS *
                     *******************************

----------------------
LOEWDIN ATOMIC CHARGES
----------------------
   0 C :   -0.044891
   1 C :   -0.049006
   2 Br:   -0.025459
   3 H :    0.024318
   4 H :    0.024318
   5 H :    0.024322
   6 H :    0.023198
   7 H :    0.023199

-------------------------------
LOEWDIN REDUCED ORBITAL CHARGES
-------------------------------
  0 C s       :     2.834981  s :     2.834981
      pz      :     1.064152  p :     3.125116
      px      :     1.016566
      py      :     1.044398
      dz2     :     0.021679  d :     0.084794
      dxz     :     0.005239
      dyz     :     0.019650
      dx2y2   :     0.012733
      dxy     :     0.025494

  1 C s       :     2.894396  s :     2.894396
      pz      :     1.089775  p :     3.058996
      px      :     0.942357
      py      :     1.026864
      dz2     :     0.022382  d :     0.095614
      dxz     :     0.008466
      dyz     :     0.021666
      dx2y2   :     0.018527
      dxy     :     0.024573

  2 Brs       :     7.815755  s :     7.815755
      pz      :     5.949140  p :    17.154714
      px      :     5.438712
      py      :     5.766862
      dz2     :     2.008978  d :    10.054991
      dxz     :     2.006584
      dyz     :     2.003432
      dx2y2   :     2.011906
      dxy     :     2.024091

  3 H s       :     0.909160  s :     0.909160
      pz      :     0.039780  p :     0.066522
      px      :     0.011448
      py      :     0.015294

  4 H s       :     0.909158  s :     0.909158
      pz      :     0.022875  p :     0.066524
      px      :     0.011475
      py      :     0.032173

  5 H s       :     0.909711  s :     0.909711
      pz      :     0.013153  p :     0.065967
      px      :     0.032495
      py      :     0.020319

  6 H s       :     0.905742  s :     0.905742
      pz      :     0.043650  p :     0.071059
      px      :     0.011482
      py      :     0.015928

  7 H s       :     0.905741  s :     0.905741
      pz      :     0.024791  p :     0.071060
      px      :     0.011507
      py      :     0.034763



                      *****************************
                      * MAYER POPULATION ANALYSIS *
                      *****************************

  NA   - Mulliken gross atomic population
  ZA   - Total nuclear charge
  QA   - Mulliken gross atomic charge
  VA   - Mayer's total valence
  BVA  - Mayer's bonded valence
  FA   - Mayer's free valence

  ATOM       NA         ZA         QA         VA         BVA        FA
  0 C      6.0342     6.0000    -0.0342     3.9073     3.9073    -0.0000
  1 C      6.0843     6.0000    -0.0843     3.9058     3.9058    -0.0000
  2 Br    35.2036    35.0000    -0.2036     0.9544     0.9544    -0.0000
  3 H      0.9479     1.0000     0.0521     0.9837     0.9837    -0.0000
  4 H      0.9479     1.0000     0.0521     0.9837     0.9837    -0.0000
  5 H      0.9561     1.0000     0.0439     0.9787     0.9787    -0.0000
  6 H      0.9130     1.0000     0.0870     0.9590     0.9590    -0.0000
  7 H      0.9130     1.0000     0.0870     0.9590     0.9590    -0.0000

  Mayer bond orders larger than 0.100000
B(  0-C ,  1-C ) :   1.0078 B(  0-C ,  3-H ) :   0.9845 B(  0-C ,  4-H ) :   0.9845 
B(  0-C ,  5-H ) :   0.9774 B(  1-C ,  2-Br) :   0.9676 B(  1-C ,  6-H ) :   0.9698 
B(  1-C ,  7-H ) :   0.9698 

-------
TIMINGS
-------

Total SCF time: 0 days 0 hours 0 min 1 sec 

Total time                  ....       1.321 sec
Sum of individual times     ....       1.108 sec  ( 83.9%)

SCF preparation             ....       0.020 sec  (  1.5%)
Fock matrix formation       ....       1.063 sec  ( 80.5%)
  Startup                   ....       0.001 sec  (  0.1% of F)
  Coulomb+Exchange Fock     ....       1.268 sec  (119.2% of F)
Diagonalization             ....       0.000 sec  (  0.0%)
Density matrix formation    ....       0.002 sec  (  0.1%)
Total Energy calculation    ....       0.001 sec  (  0.0%)
Population analysis         ....       0.015 sec  (  1.2%)
Orbital Transformation      ....       0.001 sec  (  0.1%)
Orbital Orthonormalization  ....       0.000 sec  (  0.0%)
DIIS solution               ....       0.002 sec  (  0.1%)
SOSCF solution              ....       0.005 sec  (  0.4%)
Finished LeanSCF after   1.3 sec

Maximum memory used throughout the entire LEANSCF-calculation: 9.1 MB

-------------------------   --------------------
FINAL SINGLE POINT ENERGY     -2650.693643151563
-------------------------   --------------------

                                *** OPTIMIZATION RUN DONE ***


------------------------------------------------------------------------------
                              ORCA PROPERTY CALCULATIONS
------------------------------------------------------------------------------

GBWName                                 ... bromoethane.gbw
Number of atoms                         ...      8
Number of basis functions               ...     85
Max core memory                         ...   4096 MB

Electric properties:
Dipole moment                           ... YES
Quadrupole moment                       ...  NO
Static polarizability (Dipole/Dipole)   ...  NO
Static polarizability (Dipole/Quad.)    ...  NO
Static polarizability (Quad./Quad.)     ...  NO
Static polarizability (Velocity)        ...  NO
Static hyperpolarizability              ...  NO

Atomic electric properties:
Dipole moment                           ...  NO
Quadrupole moment                       ...  NO
Static polarizability                   ...  NO

Choice of electric origin               ... Center of mass
Position of electric origin             ...    30.888142   -21.759320    -0.196573

General magnetic properties:
Magnetizability                         ...  NO

EPR properties:
g-Tensor (aka g-matrix)                 ...  NO
Zero-Field splitting spin-orbit         ...  NO
Zero-field splitting spin-spin          ...  NO
Hyperfine couplings                     ...  NO (   0 nuclei)
Quadrupole couplings                    ...  NO (   0 nuclei)
Contact density                         ...  NO (   0 nuclei)

NMR properties:
Chemical shifts                         ...  NO (   0 nuclei)
Spin-rotation constants                 ...  NO (   0 nuclei)
Spin-spin couplings                     ...  NO (   0 nuclei,    0 pairs)

Choice of magnetic origin               ... GIAO
Position of magnetic origin             ...     0.000000     0.000000     0.000000

Properties with geometric perturbations:
SCF Hessian                             ...  NO
IR spectrum                             ...  NO
VCD spectrum                            ...  NO
X-ray spectroscopy properties:
SCF XES/XAS/RIXS spectra                ...  NO

SCF SOC stabilization energy            ...  NO
Diagonal Born-Oppenheimer correction    ...  NO

-------------
DIPOLE MOMENT
-------------

Method             : SCF
Type of density    : Electron Density
Multiplicity       :   1
Irrep              :   0
Energy             : -2650.6936431515628101 Eh
Basis              : AO
                                X                 Y                 Z
Electronic contribution:     14.052881664      -3.193673047      -0.885007699
Nuclear contribution   :    -14.857016702       3.600372822       1.006187656
                        -----------------------------------------
Total Dipole Moment    :     -0.804135039       0.406699774       0.121179957
                        -----------------------------------------
Magnitude (a.u.)       :      0.909242789
Magnitude (Debye)      :      2.311111502



--------------------
Rotational spectrum 
--------------------
 
Rotational constants in cm-1:             1.017356             0.125070             0.116214 
Rotational constants in MHz :         30499.554599          3749.515348          3484.006548 

Dipole components along the rotational axes: 
x,y,z [a.u.] :    -0.867711     0.271663     0.000016 
x,y,z [Debye]:    -2.205545     0.690513     0.000042 

 

Dipole moment calculation done in   0.0 sec 

Maximum memory used throughout the entire PROP-calculation: 3.5 MB

--------------------------------
SUGGESTED CITATIONS FOR THIS RUN
--------------------------------

Below you find a list of papers that are relevant to this ORCA run
We neither can nor want to force you to cite these papers, but we appreciate if you do
You receive ORCA, which is the product of decades of hard work by many enthusiastic individuals, for free
The only thing we kindly ask in return is that you cite our papers,
We deeply appreciate it, if you show your appreciation for ORCA by not just citing the generic ORCA reference.

Please note that relegating all ORCA citations to the supporting information does *not* help us.
SI sections are not indexed - citations you put there will not count into any citation statistics
But we need these citations in order to attract the funding resources that allow us to do what we are doing

Therefore, if you are a happy ORCA user, please consider citing a few of the papers listed below in the main body of your paper

In addition to the list printed below, the program has created the file bromoethane.bibtex that contains the list in bibtex format
You can import this file easily into all common literature databanks and citation aid programs


List of essential papers. We consider these as the minimum necessary citations

  1. Neese, F.
     Software update: the ORCA program system, version 6.0
     WIRES Comput. Molec. Sci. 2025 15(1), e70019
     doi.org/10.1002/wcms.7019

List of papers to cite with high priority. The work reported in these papers was absolutely
necessary for this run to complete.
Our perspective: the developers of density functionals and basis sets usually get cited in chemistry papers
Good! But without the algorithms to do something with them, the functionals or basis sets would not do anything.
Hence, in our opinion, the algorithm design and method developments papers are equally worthy of getting cited

  1. Neese, F.
     The SHARK Integral Generation and Digestion System
     J. Comp. Chem. 2022 44(3), 381
     doi.org/10.1002/jcc.26942

List of suggested additional citations. These are papers that are important in the 'surrounding' of 
of this run, or papers that preceded the highly important papers. If you like your results we are grateful for a citation.

  1. Neese, F.
     The ORCA program system
     WIRES Comput. Molec. Sci. 2012 2(1), 73-78
     doi.org/10.1002/wcms.81
  2. Neese, F.
     Software update: the ORCA program system, version 4.0
     WIRES Comput. Molec. Sci. 2018 8(1), 1-6
     doi.org/10.1002/wcms.1327
  3. Neese, F.; Wennmohs, F.; Becker, U.; Riplinger, C.
     The ORCA quantum chemistry program package
     J. Chem. Phys. 2020 152(22), 224108
     doi.org/10.1063/5.0004608
  4. Neese, F.
     Software update: The ORCA program system—Version 5.0
     WIRES Comput. Molec. Sci. 2022 12(1), e1606
     doi.org/10.1002/wcms.1606

List of optional additional citations

  1. Neese, F.
     Approximate second-order SCF convergence for spin unrestricted wavefunctions
     Chem. Phys. Lett. 2000 325(1-3), 93-98
     doi.org/10.1016/s0009-2614(00)00662-x

Timings for individual modules:

Sum of individual times          ...       38.687 sec (=   0.645 min)
Startup calculation              ...        2.897 sec (=   0.048 min)   7.5 %
SCF iterations                   ...       23.693 sec (=   0.395 min)  61.2 %
Property calculations            ...        0.091 sec (=   0.002 min)   0.2 %
SCF Gradient evaluation          ...       11.988 sec (=   0.200 min)  31.0 %
Geometry relaxation              ...        0.019 sec (=   0.000 min)   0.0 %
                             ****ORCA TERMINATED NORMALLY****
TOTAL RUN TIME: 0 days 0 hours 0 minutes 39 seconds 476 msec
