
                                 *****************
                                 * O   R   C   A *
                                 *****************

                                            #,                                       
                                            ###                                      
                                            ####                                     
                                            #####                                    
                                            ######                                   
                                           ########,                                 
                                     ,,################,,,,,                         
                               ,,#################################,,                 
                          ,,##########################################,,             
                       ,#########################################, ''#####,          
                    ,#############################################,,   '####,        
                  ,##################################################,,,,####,       
                ,###########''''           ''''###############################       
              ,#####''   ,,,,##########,,,,          '''####'''          '####       
            ,##' ,,,,###########################,,,                        '##       
           ' ,,###''''                  '''############,,,                           
         ,,##''                                '''############,,,,        ,,,,,,###''
      ,#''                                            '''#######################'''  
     '                                                          ''''####''''         
             ,#######,   #######,   ,#######,      ##                                
            ,#'     '#,  ##    ##  ,#'     '#,    #''#        ,####,    ,#,          
            ##       ##  ##   ,#'  ##            #'  '#       #'       ,# #          
            ##       ##  #######   ##           ,######,      #####,      #          
            '#,     ,#'  ##    ##  '#,     ,#' ,#      #,     #,   #      #          
             '#######'   ##     ##  '#######'  #'      '#     '####' #    #          



                #########################################################
                #                        -***-                          #
                #          Department of theory and spectroscopy        #
                #                                                       #
                #                      Frank Neese                      #
                #                                                       #
                #     Directorship, Architecture, Infrastructure        #
                #                    SHARK, DRIVERS                     #
                #        Core code/Algorithms in most modules           #
                #                                                       #
                #        Max Planck Institute fuer Kohlenforschung      #
                #                Kaiser Wilhelm Platz 1                 #
                #                 D-45470 Muelheim/Ruhr                 #
                #                      Germany                          #
                #                                                       #
                #                  All rights reserved                  #
                #                        -***-                          #
                #########################################################


                         Program Version 6.1.0  -  RELEASE   -
                                (GIT: $679e74b7b5$)
                          ($2025-06-10 18:02:51 +0200$)


 With contributions from (in alphabetic order):
[Max-Planck-Institut fuer Kohlenforschung]                               
  Daniel Aravena         : Magnetic Suceptibility                        
  Michael Atanasov       : Ab Initio Ligand Field Theory (pilot matlab implementation)
  Alexander A. Auer      : GIAO ZORA, VPT2 properties, NMR spectrum      
  Ute Becker             : All parallelization in ORCA, NUMFREQ, NUMCALC 
  Giovanni Bistoni       : ED, misc. LED, open-shell LED, HFLD           
  Dmytro Bykov           : pre 5.0 version of the SCF Hessian            
  Marcos Casanova-Páez   : Triplet and SCS-CIS(D). UHF-(DLPNO)-IP/EA/STEOM-CCSD. UHF-CVS-IP/STEOM-CCSD   
  Vijay G. Chilkuri      : MRCI spin determinant printing, contributions to CSF-ICE 
  Pauline Colinet        : FMM embedding                                 
  Dipayan Datta          : RHF DLPNO-CCSD density                        
  Achintya Kumar Dutta   : EOM-CC, STEOM-CC                              
  Nicolas Foglia         : Exact transition moments, OPA infrastructure, MCD improvements    
  Dmitry Ganyushin       : Spin-Orbit,Spin-Spin,Magnetic field MRCI      
  Miquel Garcia-Rates    : C-PCM and meta-GGA Hessian, CCSD/C-PCM, Gaussian charge scheme 
  Tiago L. C. Gouveia    : GS-ROHF, GS-ROCIS                             
  Yang Guo               : DLPNO-NEVPT2, F12-NEVPT2, CIM, IAO-localization        
  Andreas Hansen         : Spin unrestricted coupled pair/coupled cluster methods 
  Ingolf Harden          : AUTO-CI MPn and infrastructure                
  Benjamin Helmich-Paris : MC-RPA, TRAH-(SCF,CASSCF), AVAS, COSX integrals, SCF dyn. polar., MC-PDFT, srDFT 
  Lee Huntington         : MR-EOM, pCC                                   
  Robert Izsak           : Overlap fitted RIJCOSX, COSX-SCS-MP3, EOM     
  Riya Kayal             : Wick's Theorem for AUTO-CI, AUTO-CI UHF-CCSDT 
  Emily Kempfer          : AUTO-CI RHF CISDT and CCSDT, approximate NEVPT4
  Christian Kollmar      : KDIIS, OOCD, Brueckner-CCSD(T), CCSD density, CASPT2, CASPT2-K, improved NEVPT2 
  Axel Koslowski         : Symmetry handling                             
  Simone Kossmann        : meta-GGA functionals, TD-DFT gradient, OOMP2, (MP2 Hessian; deprecated post 5.0) 
  Lucas Lang             : DCDCAS, Hyperfine gauge corrections, ICE-SOC+SSC
  Marvin Lechner         : AUTO-CI (C++ implementation), FIC-MRCC        
  Spencer Leger          : CASSCF response                               
  Dagmar Lenk            : GEPOL surface, SMD, ORCA-2-JSON               
  Dimitrios Liakos       : Extrapolation schemes; Compound Job, Property file
  Dimitrios Manganas     : Further ROCIS development; embedding schemes. LFT, Crystal Embedding 
  Dimitrios Pantazis     : SARC Basis sets                               
  Anastasios Papadopoulos: AUTO-CI, single reference methods and gradients 
  Taras Petrenko         : pre 6.0 DFT Hessian and TD-DFT gradient,  ECA, NRVS 
  Petra Pikulova         : Analytic Raman intensities                    
  Peter Pinski           : DLPNO-MP2, DLPNO-MP2 Gradient                 
  Shashank Vittal Rao    : ES-AILFT, MagRelax                            
  Christoph Reimann      : Effective Core Potentials                     
  Marius Retegan         : Local ZFS, SOC                                
  Christoph Riplinger    : Optimizer, TS searches, QM/MM, DLPNO-CCSD(T), (RO)-DLPNO pert. Triples 
  Michael Roemelt        : Original ROCIS implementation, recursive CI coupling coefficients
  Masaaki Saitow         : Open-shell DLPNO-CCSD energy and density      
  Barbara Sandhoefer     : DKH picture change effects                    
  Yorick L. A. Schmerwitz: GMF and freeze-and-release deltaSCF, NEB S-IDPP initial path                    
  Kantharuban Sivalingam : CASSCF convergence/infrastructure, NEVPT2, NEVPT3, NEVPT4(SD), FIC-MRCI and CEPA variants
  Bernardo de Souza      : ESD, SOC TD-DFT                               
  Georgi L. Stoychev     : AutoAux, RI-MP2 NMR, DLPNO-MP2 response, X2C  
  Van Anh Tran           : RI-MP2 g-tensors                              
  Willem Van den Heuvel  : Paramagnetic NMR                              
  Zikuan Wang            : NOTCH, Electric field optimization            
  Frank Wennmohs         : Technical directorship and infrastructure     
  Hang Xu                : AUTO-CI-Response properties                   
                                                                         
[FACCTs GmbH]                                                            
  Markus Bursch, Nicolas Foglia, Miquel Garcia-Rates, Ingolf Harden, Hagen Neugebauer, Anastasios Papadopoulos, 
  Christoph Riplinger, Bernardo de Souza, Georgi L. Stoychev                                                    
                                                                 
  APM, various basis sets, CI-OPT, improved COSX, DLPNO-Multilevel,           
  DOCKER, DRACO, updates on ESD, Fragmentator, GOAT, IRC, LR-CPCM, L-BFGS, MBIS, meta-GGA TD-DFT gradient, ML-optimized integration grids, 
  MM, NACMEs, nearIR, NEB, NEB-TS, NL-DFT gradient (VV10), 2- and 3-layer-ONIOM, interface openCOSMO-RS, QMMM,   
  Crystal-QMMM, RESP, rigid body optimization, SF, symmetry and pop. for TD-DFT, various functionals, SOLVATOR                                   
                                                                         
[Other institutions]                                                     
  V. Asgeirsson          : NEB                                           
  Christoph Bannwarth    : sTDA-DFT, sTD-DFT, PBEh-3c, B97-3c, D3        
  Giovanni Bistoni       : ETS/NOCV, ADLD/ADEX, COVALED                  
  Martin Brehm           : Molecular dynamics                            
  Ronald Cardenas        : ETS/NOCV                                      
  Martina Colucci        : COVALED                                       
  Sebastian Ehlert       : rSCAN, r2SCAN, r2SCAN-3c, D4, dhf basis sets  
  Marvin Friede          : D4 for Fr, Ra, Ac-Lr                          
  Lars Goerigk           : TD-DFT with DH, B97 family of functionals     
  Stefan Grimme          : VdW corrections, initial TS optimization, DFT functionals, gCP, sTDA/sTD-DF 
  Waldemar Hujo          : DFT-NL                                        
  H. Jonsson             : NEB                                           
  Holger Kruse           : gCP                                           
  Marcel Mueller         : wB97X-3c, vDZP basis set                      
  Hagen Neugebauer       : wr2SCAN, Native XTB                           
  Gianluca Regni         : ADLD/ADEX                                     
  Tobias Risthaus        : pre 6.0 range-separated hybrid DFT and stability analysis
  Lukas Wittmann         : regularized MP2, r2SCAN double-hybrids, wr2SCAN        
                                                                         
We gratefully acknowledge several colleagues who have allowed us to      
interface, adapt or use parts of their codes:                            
  Ed Valeev, F. Pavosevic, A. Kumar             : LibInt (2-el integral package), F12 methods 
  Garnet Chan, S. Sharma, J. Yang, R. Olivares  : DMRG                   
  Ulf Ekstrom                                   : XCFun DFT Library      
  Mihaly Kallay                                 : mrcc  (arbitrary order and MRCC methods)
  Frank Weinhold                                : gennbo (NPA and NBO analysis)           
  Simon Mueller                                 : openCOSMO-RS                            
  Christopher J. Cramer and Donald G. Truhlar   : smd solvation model                     
  S Lehtola, MJT Oliveira, MAL Marques          : LibXC Library                           
  Liviu Ungur et al                             : ANISO software                          


 Your calculation uses the libint2 library for the computation of 2-el integrals
 For citations please refer to: http://libint.valeyev.net

 Your ORCA version has been built with support for libXC version: 7.0.0
 For citations please refer to: https://libxc.gitlab.io

 This ORCA versions uses:
   CBLAS   interface :  Fast vector & matrix operations
   LAPACKE interface :  Fast linear algebra routines
   SCALAPACK package :  Parallel linear algebra routines
   Shared memory     :  Shared parallel matrices


  ***********************************
  * Starting time: Sun Aug 31 17:45:51 2025
  * Host name:     Tommasos-MacBook-Air-4.local
  * Process ID:    10330
  * Working dir.:  /Users/tommasocolombo/Desktop/ORCA calculations/Indole/Propargyl_indole
  ***********************************



***************************************
The coordinates will be read from file: C3_propargyl_indole.xyz
***************************************


================================================================================

----- Orbital basis set information -----
Your calculation utilizes the basis: def2-SVP
   F. Weigend and R. Ahlrichs, Phys. Chem. Chem. Phys. 7, 3297 (2005).

================================================================================
                                        WARNINGS
                       Please study these warnings very carefully!
================================================================================

WARNING: Old DensityContainer found on disk!
         Will remove this file - 
         If you want to keep old densities, please start your calculation with a different basename. 


================================================================================
                                       INPUT FILE
================================================================================
NAME = indole.inp
|  1> !HF DEF2-SVP
|  2> * xyzfile 0 1 C3_propargyl_indole.xyz
|  3> 
|  4>                          ****END OF INPUT****
================================================================================

                       ****************************
                       * Single Point Calculation *
                       ****************************

---------------------------------
CARTESIAN COORDINATES (ANGSTROEM)
---------------------------------
  C      5.421400  -11.256900    0.000000
  C      5.421400  -12.756900    0.000000
  C      6.720400  -13.506900    0.000000
  C      8.019400  -12.756900    0.000000
  C      8.019400  -11.256900    0.000000
  C      6.720400  -10.506900    0.000000
  N      9.446000  -13.220400    0.000000
  C     10.327700  -12.006900    0.000000
  C      9.446000  -10.793400    0.000000
  C      9.909500   -9.366800    0.000000
  C     11.376800   -9.054900    0.000000
  C     12.844000   -8.743100    0.000000
  H      4.527660  -10.740910    0.000000
  H      4.527660  -13.272890    0.000000
  H      6.720400  -14.538900    0.000000
  H      6.720400   -9.474900    0.000000
  H      9.750230  -14.156720    0.000000
  H     11.359700  -12.006900    0.000000
  H      9.193520   -8.571650    0.000000
  H     10.240140   -8.349170    0.000000
  H     13.816290   -8.536480    0.000000

----------------------------
CARTESIAN COORDINATES (A.U.)
----------------------------
  NO LB      ZA    FRAG     MASS         X           Y           Z
   0 C     6.0000    0    12.011   10.244961  -21.272458    0.000000
   1 C     6.0000    0    12.011   10.244961  -24.107047    0.000000
   2 C     6.0000    0    12.011   12.699716  -25.524342    0.000000
   3 C     6.0000    0    12.011   15.154470  -24.107047    0.000000
   4 C     6.0000    0    12.011   15.154470  -21.272458    0.000000
   5 C     6.0000    0    12.011   12.699716  -19.855164    0.000000
   6 N     7.0000    0    14.007   17.850353  -24.982935    0.000000
   7 C     6.0000    0    12.011   19.516525  -22.689753    0.000000
   8 C     6.0000    0    12.011   17.850353  -20.396570    0.000000
   9 C     6.0000    0    12.011   18.726241  -17.700687    0.000000
  10 C     6.0000    0    12.011   21.499036  -17.111281    0.000000
  11 C     6.0000    0    12.011   24.271642  -16.522065    0.000000
  12 H     1.0000    0     1.008    8.556037  -20.297378    0.000000
  13 H     1.0000    0     1.008    8.556037  -25.082127    0.000000
  14 H     1.0000    0     1.008   12.699716  -27.474539    0.000000
  15 H     1.0000    0     1.008   12.699716  -17.904966    0.000000
  16 H     1.0000    0     1.008   18.425264  -26.752324    0.000000
  17 H     1.0000    0     1.008   21.466722  -22.689753    0.000000
  18 H     1.0000    0     1.008   17.373235  -16.198071    0.000000
  19 H     1.0000    0     1.008   19.351060  -15.777645    0.000000
  20 H     1.0000    0     1.008   26.109004  -16.131609    0.000000

--------------------------------
INTERNAL COORDINATES (ANGSTROEM)
--------------------------------
 C      0   0   0     0.000000000000     0.00000000     0.00000000
 C      1   0   0     1.500000000000     0.00000000     0.00000000
 C      2   1   0     1.499966999637   120.00072778     0.00000000
 C      3   2   1     1.499966999637   119.99854444     0.00000000
 C      4   3   2     1.500000000000   120.00072778     0.00000000
 C      5   4   3     1.499966999637   120.00072778     0.00000000
 N      4   3   2     1.500006603319   132.00037798   180.00000000
 C      7   4   3     1.499992379981   108.00236170   180.00000000
 C      8   7   4     1.499992379981   107.99748812     0.00000000
 C      9   8   7     1.500006603319   125.99984982   180.00000000
 C     10   9   8     1.500083631002   119.99948293     0.00000000
 C     11  10   9     1.499965026259   179.99705789     0.00000000
 H      1   2   3     1.031996544423   119.99946968   180.00000000
 H      2   1   3     1.031996544423   119.99946968   180.00000000
 H      3   2   1     1.032000000000   120.00072778   180.00000000
 H      6   5   4     1.032000000000   120.00072778   180.00000000
 H      7   4   3     0.984505477537   125.99896011     0.00000000
 H      8   7   4     1.032000000000   126.00125594   180.00000000
 H     10   9   8     1.069995739664   120.00016169   180.00000000
 H     10   9   8     1.069997021725   179.99930320     0.00000000
 H     12  11  20     0.994001845320   179.99972493   180.00000085

---------------------------
INTERNAL COORDINATES (A.U.)
---------------------------
 C      0   0   0     0.000000000000     0.00000000     0.00000000
 C      1   0   0     2.834589200882     0.00000000     0.00000000
 C      2   1   0     2.834526839233   120.00072778     0.00000000
 C      3   2   1     2.834526839233   119.99854444     0.00000000
 C      4   3   2     2.834589200882   120.00072778     0.00000000
 C      5   4   3     2.834526839233   120.00072778     0.00000000
 N      4   3   2     2.834601679346   132.00037798   180.00000000
 C      7   4   3     2.834574801132   108.00236170   180.00000000
 C      8   7   4     2.834574801132   107.99748812     0.00000000
 C      9   8   7     2.834601679346   125.99984982   180.00000000
 C     10   9   8     2.834747240572   119.99948293     0.00000000
 C     11  10   9     2.834523110089   179.99705789     0.00000000
 H      1   2   3     1.950190840112   119.99946968   180.00000000
 H      2   1   3     1.950190840112   119.99946968   180.00000000
 H      3   2   1     1.950197370207   120.00072778   180.00000000
 H      6   5   4     1.950197370207   120.00072778   180.00000000
 H      7   4   3     1.860445729890   125.99896011     0.00000000
 H      8   7   4     1.950197370207   126.00125594   180.00000000
 H     10   9   8     2.021998912428   120.00016169   180.00000000
 H     10   9   8     2.022001335171   179.99930320     0.00000000
 H     12  11  20     1.878391264268   179.99972493   180.00000085

---------------------
BASIS SET INFORMATION
---------------------
There are 3 groups of distinct atoms

 Group   1 Type C   : 7s4p1d contracted to 3s2p1d pattern {511/31/1}
 Group   2 Type N   : 7s4p1d contracted to 3s2p1d pattern {511/31/1}
 Group   3 Type H   : 4s1p contracted to 2s1p pattern {31/1}

Atom   0C    basis set group =>   1
Atom   1C    basis set group =>   1
Atom   2C    basis set group =>   1
Atom   3C    basis set group =>   1
Atom   4C    basis set group =>   1
Atom   5C    basis set group =>   1
Atom   6N    basis set group =>   2
Atom   7C    basis set group =>   1
Atom   8C    basis set group =>   1
Atom   9C    basis set group =>   1
Atom  10C    basis set group =>   1
Atom  11C    basis set group =>   1
Atom  12H    basis set group =>   3
Atom  13H    basis set group =>   3
Atom  14H    basis set group =>   3
Atom  15H    basis set group =>   3
Atom  16H    basis set group =>   3
Atom  17H    basis set group =>   3
Atom  18H    basis set group =>   3
Atom  19H    basis set group =>   3
Atom  20H    basis set group =>   3

Checking for AutoStart:
The File: indole.gbw exists
Trying to determine its content:
     ... Fine, the file contains calculation information
     ... Fine, the calculation information was read
     ... Fine, the file contains a basis set
     ... Fine, the basis set was read
     ... Fine, the file contains a geometry
     ... Fine, the geometry was read
     ... Fine, the file contains a set of orbitals
     ... Fine, the orbitals can be read
     => possible old guess file was deleted
     => GBW file was renamed to GES file
     => GES file is set as startup file
     => Guess is set to MORead
     ... now leaving AutoStart

------------------------------------------------------------------------------
                             ORCA STARTUP CALCULATIONS
------------------------------------------------------------------------------
------------------------------------------------------------------------------
                   ___                                                        
                  /   \      - P O W E R E D   B Y -                         
                 /     \                                                     
                 |  |  |   _    _      __       _____    __    __             
                 |  |  |  | |  | |    /  \     |  _  \  |  |  /  |          
                  \  \/   | |  | |   /    \    | | | |  |  | /  /          
                 / \  \   | |__| |  /  /\  \   | |_| |  |  |/  /          
                |  |  |   |  __  | /  /__\  \  |    /   |      \           
                |  |  |   | |  | | |   __   |  |    \   |  |\   \          
                \     /   | |  | | |  |  |  |  | |\  \  |  | \   \       
                 \___/    |_|  |_| |__|  |__|  |_| \__\ |__|  \__/        
                                                                              
                      - O R C A' S   B I G   F R I E N D -                    
                                      &                                       
                       - I N T E G R A L  F E E D E R -                       
                                                                              
 v1 FN, 2020, v2 2021, v3 2022-2024                                           
------------------------------------------------------------------------------


----------------------
SHARK INTEGRAL PACKAGE
----------------------

Number of atoms                             ...     21
Number of basis functions                   ...    213
Number of shells                            ...     99
Maximum angular momentum                    ...      2
Integral batch strategy                     ... SHARK/LIBINT Hybrid
RI-J (if used) integral strategy            ... SPLIT-RIJ (Revised 2003 algorithm where possible)
Printlevel                                  ...      1
Contraction scheme used                     ... SEGMENTED contraction
Prescreening option                         ... SCHWARTZ
   Thresh                                   ... 1.000e-10
   Tcut                                     ... 1.000e-11
   Tpresel                                  ... 1.000e-11 
Coulomb Range Separation                    ... NOT USED
Exchange Range Separation                   ... NOT USED
Multipole approximations                    ... NOT USED
Finite Nucleus Model                        ... NOT USED
CABS basis                                  ... NOT available
Auxiliary Coulomb fitting basis             ... NOT available
Auxiliary J/K fitting basis                 ... NOT available
Auxiliary Correlation fitting basis         ... NOT available
Auxiliary 'external' fitting basis          ... NOT available

Checking pre-screening integrals            ... done (  0.0 sec) Dimension = 99
   => SHARK Basis and OBASIS are compatible. Storing Pre-screening
Shell pair information
Shell pair cut-off parameter TPreSel        ...   1.0e-11
Total number of shell pairs                 ...      4950
Shell pairs after pre-screening             ...      4154
Total number of primitive shell pairs       ...     18138
Primitive shell pairs kept                  ...     10472
          la=0 lb=0:   1259 shell pairs
          la=1 lb=0:   1502 shell pairs
          la=1 lb=1:    484 shell pairs
          la=2 lb=0:    526 shell pairs
          la=2 lb=1:    324 shell pairs
          la=2 lb=2:     59 shell pairs

Checking whether 4 symmetric matrices of dimension 213 fit in memory
:Max Core in MB      =   4096.00
 MB in use           =      5.34
 MB left             =   4090.66
 MB needed           =      0.70
 Data fit in memory  = YES
Calculating Nuclear repulsion               ... done (  0.0 sec) ENN=    570.207681817203 Eh

Diagonalization of the overlap matrix:
Smallest eigenvalue                        ... 5.119e-04
Time for diagonalization                   ...    0.005 sec
Threshold for overlap eigenvalues          ... 1.000e-07
Number of eigenvalues below threshold      ... 0
Time for construction of square roots      ...    0.001 sec
Total time needed                          ...    0.007 sec

-------------------
DFT GRID GENERATION
-------------------

General Integration Accuracy     IntAcc      ... 4.388
Radial Grid Type                 RadialGrid  ... OptM3 with GC (2021)
Angular Grid (max. ang.)         AngularGrid ... 4 (Lebedev-302)
Angular grid pruning method      GridPruning ... 4 (adaptive)
Weight generation scheme         WeightScheme... mBecke (2022)
Basis function cutoff            BFCut       ... 1.0000e-10
Integration weight cutoff        WCut        ... 1.0000e-14
Partially contracted basis set               ... off
Rotationally invariant grid construction     ... off
Angular grids for H and He will be reduced by one unit

Total number of grid points                  ...   101158
Total number of batches                      ...     1591
Average number of points per batch           ...       63
Average number of grid points per atom       ...     4817
Grids setup in   0.8 sec
Initializing property integral containers    ... done (  0.0 sec)

SHARK setup successfully completed in   0.9 seconds

Maximum memory used throughout the entire STARTUP-calculation: 37.6 MB
-------------------------------------------------------------------------------
                                 ORCA GUESS
                   Start orbitals & Density for SCF / CASSCF
-------------------------------------------------------------------------------

------------
SCF SETTINGS
------------
Hamiltonian:
 Ab initio Hamiltonian  Method          .... Hartree-Fock(GTOs)


General Settings:
 Integral files         IntName         .... indole
 Hartree-Fock type      HFTyp           .... RHF
 Total Charge           Charge          ....    0
 Multiplicity           Mult            ....    1
 Number of Electrons    NEL             ....   82
 Basis Dimension        Dim             ....  213
 Nuclear Repulsion      ENuc            ....    570.2076818172 Eh

Convergence Acceleration:
 AO-DIIS                CNVDIIS         .... on
   Start iteration      DIISMaxIt       ....    12
   Startup error        DIISStart       ....  0.200000
   # of expansion vecs  DIISMaxEq       ....     5
   Bias factor          DIISBfac        ....   1.050
   Max. coefficient     DIISMaxC        ....  10.000
 MO-DIIS                CNVKDIIS        .... off
 Trust-Rad. Augm. Hess. CNVTRAH         .... auto
   Auto Start mean grad. ratio tolernc. ....  1.125000
   Auto Start start iteration           ....     1
   Auto Start num. interpolation iter.  ....    10
   Max. Number of Micro iterations      ....    24
   Max. Number of Macro iterations      .... Maxiter - #DIIS iter
   Number of Davidson start vectors     ....     2
   Converg. threshold    (grad. norm)   ....   5.000e-05
   Grad. Scal. Fac. for Micro threshold ....   0.100
   Minimum threshold for Micro iter.    ....   1.000e-02
   NR start threshold (gradient norm)   ....   1.000e-04
   Initial trust radius                 ....   0.400
   Minimum AH scaling param. (alpha)    ....   1.000
   Maximum AH scaling param. (alpha)    .... 1000.000
   Quad. conv. algorithm                .... NR
   White noise on init. David. guess    .... on
   Maximum white noise                  ....   0.010
   Pseudo random numbers                .... off
   Inactive MOs                         .... canonical
   Orbital update algorithm             .... Taylor
   Preconditioner                       .... Diag
   Full preconditioner red. dimension   ....   250
 SOSCF                 CNVSOSCF           .... on
   Start iteration     SOSCFMaxIt         ....   150
   Startup grad/error  SOSCFStart         ....  0.003300
   Hessian update      SOSCFHessUp        .... L-BFGS
   Autom. constraints  SOSCFAutoConstrain .... off
 Level Shifting         CNVShift        .... on
   Level shift para.    LevelShift      ....    0.2500
   Turn off err/grad.   ShiftErr        ....    0.0010
 Zerner damping         CNVZerner       .... off
 Static damping         CNVDamp         .... on
   Fraction old density DampFac         ....    0.7000
   Max. Damping (<1)    DampMax         ....    0.9800
   Min. Damping (>=0)   DampMin         ....    0.0000
   Turn off err/grad.   DampErr         ....    0.1000

SCF Procedure:
 Maximum # iterations   MaxIter         ....   125
 SCF integral mode      SCFMode         .... Direct
   Integral package                     .... SHARK and LIBINT hybrid scheme
 Reset frequency        DirectResetFreq ....    20
 Integral Threshold     Thresh          ....  1.000e-10 Eh
 Primitive CutOff       TCut            ....  1.000e-11 Eh

Convergence Tolerance:
 Convergence Check Mode ConvCheckMode   .... Total+1el-Energy
 Convergence forced     ConvForced      .... 0
 Energy Change          TolE            ....  1.000e-06 Eh
 1-El. energy change                    ....  1.000e-03 Eh
 Orbital Gradient       TolG            ....  5.000e-05
 Orbital Rotation angle TolX            ....  5.000e-05
 DIIS Error             TolErr          ....  1.000e-06

---------------------
INITIAL GUESS: MOREAD
---------------------
Guess MOs are being read from file: indole.ges
Input Geometry matches current geometry (good)
Input basis set matches current basis set (good)
Occupation numbers will be reassigned to an Aufbau configuration
MOs were renormalized
MOs were reorthogonalized (Cholesky)
                      ------------------
                      INITIAL GUESS DONE (   0.0 sec)
                      ------------------
             **** ENERGY FILE WAS UPDATED (indole.en.tmp) ****
Finished Guess after   0.0 sec
Maximum memory used throughout the entire GUESS-calculation: 11.2 MB

-------------------------------------------------------------------------------------------
                                      ORCA LEAN-SCF
                              memory conserving SCF solver
-------------------------------------------------------------------------------------------

----------------------------------------D-I-I-S--------------------------------------------
Iteration    Energy (Eh)           Delta-E    RMSDP     MaxDP     DIISErr   Damp  Time(sec)
-------------------------------------------------------------------------------------------
               ***  Starting incremental Fock matrix formation  ***
                              *** Initializing SOSCF ***
---------------------------------------S-O-S-C-F--------------------------------------
Iteration    Energy (Eh)           Delta-E    RMSDP     MaxDP     MaxGrad    Time(sec)
--------------------------------------------------------------------------------------
    1    -475.3629099596010974     0.00e+00  1.73e-06  5.26e-05  6.23e-06     3.7
               *** Restarting incremental Fock matrix formation ***
    2    -475.3629099765274759    -1.69e-08  9.51e-07  2.91e-05  1.49e-05     3.6
    3    -475.3629099822966282    -5.77e-09  5.94e-07  1.83e-05  5.79e-06     2.0
                 **** Energy Check signals convergence ****

               *****************************************************
               *                     SUCCESS                       *
               *           SCF CONVERGED AFTER   3 CYCLES          *
               *****************************************************

             **** ENERGY FILE WAS UPDATED (indole.en.tmp) ****

----------------
TOTAL SCF ENERGY
----------------

Total Energy       :       -475.36290997872072 Eh          -12935.28240 eV

Components:
Nuclear Repulsion  :        570.20768181720280 Eh           15516.13985 eV
Electronic Energy  :      -1045.57059179592352 Eh          -28451.42225 eV
One Electron Energy:      -1772.81285947273454 Eh          -48240.69042 eV
Two Electron Energy:        727.24226767681103 Eh           19789.26817 eV

Virial components:
Potential Energy   :       -945.88825225432311 Eh          -25738.92789 eV
Kinetic Energy     :        470.52534227560233 Eh           12803.64549 eV
Virial Ratio       :          2.01028120542822

---------------
SCF CONVERGENCE
---------------

  Last Energy change         ...    5.7692e-09  Tolerance :   1.0000e-06
  Last MAX-Density change    ...    1.8270e-05  Tolerance :   1.0000e-05
  Last RMS-Density change    ...    5.9388e-07  Tolerance :   1.0000e-06
  Last DIIS Error            ...    5.2509e-05  Tolerance :   1.0000e-06
  Last Orbital Gradient      ...    5.7906e-06  Tolerance :   5.0000e-05
  Last Orbital Rotation      ...    1.4226e-05  Tolerance :   5.0000e-05


----------------
ORBITAL ENERGIES
----------------

  NO   OCC          E(Eh)            E(eV) 
   0   2.0000     -15.604937      -424.6319 
   1   2.0000     -11.334469      -308.4266 
   2   2.0000     -11.307109      -307.6821 
   3   2.0000     -11.305700      -307.6438 
   4   2.0000     -11.287957      -307.1609 
   5   2.0000     -11.280252      -306.9513 
   6   2.0000     -11.278723      -306.9097 
   7   2.0000     -11.263825      -306.5043 
   8   2.0000     -11.262583      -306.4705 
   9   2.0000     -11.261251      -306.4342 
  10   2.0000     -11.259362      -306.3828 
  11   2.0000     -11.253859      -306.2331 
  12   2.0000      -1.206870       -32.8406 
  13   2.0000      -1.131215       -30.7819 
  14   2.0000      -1.072787       -29.1920 
  15   2.0000      -1.013037       -27.5661 
  16   2.0000      -0.964892       -26.2561 
  17   2.0000      -0.941658       -25.6238 
  18   2.0000      -0.919883       -25.0313 
  19   2.0000      -0.827528       -22.5182 
  20   2.0000      -0.813078       -22.1250 
  21   2.0000      -0.783524       -21.3208 
  22   2.0000      -0.757774       -20.6201 
  23   2.0000      -0.714707       -19.4482 
  24   2.0000      -0.682163       -18.5626 
  25   2.0000      -0.652410       -17.7530 
  26   2.0000      -0.645481       -17.5644 
  27   2.0000      -0.607062       -16.5190 
  28   2.0000      -0.585917       -15.9436 
  29   2.0000      -0.569152       -15.4874 
  30   2.0000      -0.550354       -14.9759 
  31   2.0000      -0.537090       -14.6150 
  32   2.0000      -0.510469       -13.8906 
  33   2.0000      -0.495747       -13.4900 
  34   2.0000      -0.457789       -12.4571 
  35   2.0000      -0.434860       -11.8331 
  36   2.0000      -0.371424       -10.1070 
  37   2.0000      -0.369604       -10.0574 
  38   2.0000      -0.310242        -8.4421 
  39   2.0000      -0.293514        -7.9869 
  40   2.0000      -0.243902        -6.6369 
  41   0.0000       0.071787         1.9534 
  42   0.0000       0.087280         2.3750 
  43   0.0000       0.131876         3.5885 
  44   0.0000       0.143954         3.9172 
  45   0.0000       0.155335         4.2269 
  46   0.0000       0.188657         5.1336 
  47   0.0000       0.199227         5.4213 
  48   0.0000       0.204819         5.5734 
  49   0.0000       0.218220         5.9381 
  50   0.0000       0.234379         6.3778 
  51   0.0000       0.236144         6.4258 
*Only the first 10 virtual orbitals were printed.

                    ********************************
                    * MULLIKEN POPULATION ANALYSIS *
                    ********************************

-----------------------
MULLIKEN ATOMIC CHARGES
-----------------------
   0 C :   -0.035378
   1 C :   -0.006469
   2 C :   -0.038965
   3 C :    0.216144
   4 C :   -0.118550
   5 C :    0.022820
   6 N :   -0.456402
   7 C :    0.238432
   8 C :   -0.003745
   9 C :   -0.289203
  10 C :   -0.022774
  11 C :   -0.089341
  12 H :    0.021962
  13 H :    0.027096
  14 H :    0.010609
  15 H :    0.003506
  16 H :    0.153871
  17 H :    0.038043
  18 H :    0.086290
  19 H :    0.187429
  20 H :    0.054624
Sum of atomic charges:   -0.0000000

--------------------------------
MULLIKEN REDUCED ORBITAL CHARGES
--------------------------------
  0 C s       :     3.141012  s :     3.141012
      pz      :     1.025713  p :     2.857711
      px      :     0.912355
      py      :     0.919642
      dz2     :     0.003498  d :     0.036655
      dxz     :     0.003076
      dyz     :     0.004778
      dx2y2   :     0.012161
      dxy     :     0.013141

  1 C s       :     3.136484  s :     3.136484
      pz      :     0.996617  p :     2.832856
      px      :     0.908381
      py      :     0.927858
      dz2     :     0.003528  d :     0.037130
      dxz     :     0.003232
      dyz     :     0.005117
      dx2y2   :     0.012064
      dxy     :     0.013190

  2 C s       :     3.176299  s :     3.176299
      pz      :     1.048135  p :     2.826344
      px      :     0.893865
      py      :     0.884345
      dz2     :     0.003550  d :     0.036321
      dxz     :     0.006021
      dyz     :     0.002086
      dx2y2   :     0.013633
      dxy     :     0.011031

  3 C s       :     3.044934  s :     3.044934
      pz      :     0.969527  p :     2.682801
      px      :     0.733957
      py      :     0.979317
      dz2     :     0.004907  d :     0.056122
      dxz     :     0.010577
      dyz     :     0.006009
      dx2y2   :     0.019610
      dxy     :     0.015019

  4 C s       :     3.077945  s :     3.077945
      pz      :     1.039821  p :     2.996187
      px      :     0.965805
      py      :     0.990561
      dz2     :     0.004139  d :     0.044417
      dxz     :     0.007239
      dyz     :     0.004610
      dx2y2   :     0.017008
      dxy     :     0.011422

  5 C s       :     3.144477  s :     3.144477
      pz      :     1.001279  p :     2.795842
      px      :     0.907633
      py      :     0.886931
      dz2     :     0.003553  d :     0.036860
      dxz     :     0.006372
      dyz     :     0.001982
      dx2y2   :     0.013837
      dxy     :     0.011117

  6 N s       :     3.484538  s :     3.484538
      pz      :     1.716715  p :     3.950508
      px      :     1.143475
      py      :     1.090318
      dz2     :     0.002034  d :     0.021355
      dxz     :     0.003448
      dyz     :     0.001513
      dx2y2   :     0.007239
      dxy     :     0.007121

  7 C s       :     3.072256  s :     3.072256
      pz      :     1.062392  p :     2.642558
      px      :     0.836085
      py      :     0.744081
      dz2     :     0.004417  d :     0.046754
      dxz     :     0.003137
      dyz     :     0.009592
      dx2y2   :     0.012429
      dxy     :     0.017179

  8 C s       :     3.051655  s :     3.051655
      pz      :     1.044753  p :     2.904039
      px      :     0.972022
      py      :     0.887264
      dz2     :     0.004260  d :     0.048051
      dxz     :     0.005659
      dyz     :     0.010470
      dx2y2   :     0.014122
      dxy     :     0.013540

  9 C s       :     3.226676  s :     3.226676
      pz      :     1.546790  p :     3.015100
      px      :     0.754133
      py      :     0.714177
      dz2     :     0.004859  d :     0.047427
      dxz     :     0.003828
      dyz     :     0.004640
      dx2y2   :     0.012884
      dxy     :     0.021217

 10 C s       :     3.122767  s :     3.122767
      pz      :     0.748196  p :     2.862646
      px      :     0.768525
      py      :     1.345924
      dz2     :     0.003748  d :     0.037361
      dxz     :     0.021019
      dyz     :     0.000751
      dx2y2   :     0.007746
      dxy     :     0.004096

 11 C s       :     3.262260  s :     3.262260
      pz      :     1.574668  p :     2.808750
      px      :     0.772243
      py      :     0.461838
      dz2     :     0.002093  d :     0.018331
      dxz     :     0.002337
      dyz     :     0.000100
      dx2y2   :     0.007495
      dxy     :     0.006306

 12 H s       :     0.950469  s :     0.950469
      pz      :     0.005271  p :     0.027569
      px      :     0.015406
      py      :     0.006893

 13 H s       :     0.945360  s :     0.945360
      pz      :     0.005104  p :     0.027543
      px      :     0.015506
      py      :     0.006933

 14 H s       :     0.961723  s :     0.961723
      pz      :     0.005436  p :     0.027669
      px      :     0.002740
      py      :     0.019493

 15 H s       :     0.968983  s :     0.968983
      pz      :     0.005339  p :     0.027511
      px      :     0.002924
      py      :     0.019249

 16 H s       :     0.798069  s :     0.798069
      pz      :     0.014292  p :     0.048059
      px      :     0.006048
      py      :     0.027719

 17 H s       :     0.932206  s :     0.932206
      pz      :     0.006482  p :     0.029751
      px      :     0.020490
      py      :     0.002779

 18 H s       :     0.877061  s :     0.877061
      pz      :     0.012983  p :     0.036649
      px      :     0.015293
      py      :     0.008374

 19 H s       :     0.723149  s :     0.723149
      pz      :     0.028709  p :     0.089421
      px      :     0.038577
      py      :     0.022135

 20 H s       :     0.907792  s :     0.907792
      pz      :     0.014187  p :     0.037584
      px      :     0.020376
      py      :     0.003021



                     *******************************
                     * LOEWDIN POPULATION ANALYSIS *
                     *******************************

----------------------
LOEWDIN ATOMIC CHARGES
----------------------
   0 C :   -0.032165
   1 C :   -0.011291
   2 C :   -0.042299
   3 C :    0.076545
   4 C :   -0.051265
   5 C :   -0.012236
   6 N :   -0.078222
   7 C :    0.062631
   8 C :   -0.037725
   9 C :   -0.198880
  10 C :   -0.024309
  11 C :   -0.049294
  12 H :    0.010219
  13 H :    0.012715
  14 H :    0.009949
  15 H :    0.005896
  16 H :    0.068456
  17 H :    0.011451
  18 H :    0.112836
  19 H :    0.152962
  20 H :    0.014025

-------------------------------
LOEWDIN REDUCED ORBITAL CHARGES
-------------------------------
  0 C s       :     2.880998  s :     2.880998
      pz      :     1.005378  p :     3.072385
      px      :     1.037651
      py      :     1.029355
      dz2     :     0.005993  d :     0.078782
      dxz     :     0.005342
      dyz     :     0.008732
      dx2y2   :     0.028337
      dxy     :     0.030379

  1 C s       :     2.882353  s :     2.882353
      pz      :     0.979299  p :     3.049715
      px      :     1.036676
      py      :     1.033741
      dz2     :     0.005984  d :     0.079223
      dxz     :     0.005633
      dyz     :     0.009337
      dx2y2   :     0.027962
      dxy     :     0.030306

  2 C s       :     2.879388  s :     2.879388
      pz      :     1.024856  p :     3.084151
      px      :     1.013424
      py      :     1.045871
      dz2     :     0.006187  d :     0.078760
      dxz     :     0.010894
      dyz     :     0.003412
      dx2y2   :     0.031352
      dxy     :     0.026915

  3 C s       :     2.885532  s :     2.885532
      pz      :     0.978223  p :     2.925779
      px      :     0.925146
      py      :     1.022411
      dz2     :     0.008298  d :     0.112144
      dxz     :     0.019642
      dyz     :     0.010762
      dx2y2   :     0.043083
      dxy     :     0.030358

  4 C s       :     2.879366  s :     2.879366
      pz      :     1.023978  p :     3.078040
      px      :     1.029957
      py      :     1.024106
      dz2     :     0.007244  d :     0.093858
      dxz     :     0.013393
      dyz     :     0.008375
      dx2y2   :     0.039366
      dxy     :     0.025479

  5 C s       :     2.878757  s :     2.878757
      pz      :     0.985230  p :     3.053906
      px      :     1.022967
      py      :     1.045709
      dz2     :     0.006102  d :     0.079573
      dxz     :     0.011522
      dyz     :     0.003341
      dx2y2   :     0.031895
      dxy     :     0.026713

  6 N s       :     3.081648  s :     3.081648
      pz      :     1.649013  p :     3.952172
      px      :     1.151100
      py      :     1.152058
      dz2     :     0.002717  d :     0.044401
      dxz     :     0.006154
      dyz     :     0.002620
      dx2y2   :     0.016402
      dxy     :     0.016507

  7 C s       :     2.880169  s :     2.880169
      pz      :     1.061440  p :     2.961507
      px      :     1.012211
      py      :     0.887857
      dz2     :     0.007309  d :     0.095693
      dxz     :     0.005279
      dyz     :     0.018127
      dx2y2   :     0.026274
      dxy     :     0.038705

  8 C s       :     2.876380  s :     2.876380
      pz      :     1.038819  p :     3.060018
      px      :     1.026838
      py      :     0.994361
      dz2     :     0.007625  d :     0.101328
      dxz     :     0.010531
      dyz     :     0.019714
      dx2y2   :     0.031272
      dxy     :     0.032184

  9 C s       :     2.779717  s :     2.779717
      pz      :     1.444300  p :     3.320373
      px      :     0.926998
      py      :     0.949075
      dz2     :     0.009279  d :     0.098791
      dxz     :     0.005704
      dyz     :     0.007341
      dx2y2   :     0.030421
      dxy     :     0.046045

 10 C s       :     2.913662  s :     2.913662
      pz      :     0.781872  p :     3.042822
      px      :     0.972343
      py      :     1.288607
      dz2     :     0.006335  d :     0.067826
      dxz     :     0.035898
      dyz     :     0.001415
      dx2y2   :     0.013527
      dxy     :     0.010650

 11 C s       :     2.979900  s :     2.979900
      pz      :     1.523198  p :     3.037422
      px      :     1.009155
      py      :     0.505069
      dz2     :     0.003905  d :     0.031972
      dxz     :     0.004138
      dyz     :     0.000178
      dx2y2   :     0.012483
      dxy     :     0.011269

 12 H s       :     0.909703  s :     0.909703
      pz      :     0.018678  p :     0.080079
      px      :     0.039532
      py      :     0.021868

 13 H s       :     0.907476  s :     0.907476
      pz      :     0.018004  p :     0.079809
      px      :     0.039812
      py      :     0.021993

 14 H s       :     0.909547  s :     0.909547
      pz      :     0.019283  p :     0.080504
      px      :     0.012455
      py      :     0.048766

 15 H s       :     0.914617  s :     0.914617
      pz      :     0.018369  p :     0.079487
      px      :     0.013012
      py      :     0.048106

 16 H s       :     0.791442  s :     0.791442
      pz      :     0.046837  p :     0.140102
      px      :     0.023786
      py      :     0.069479

 17 H s       :     0.903922  s :     0.903922
      pz      :     0.021528  p :     0.084627
      px      :     0.053014
      py      :     0.010085

 18 H s       :     0.786922  s :     0.786922
      pz      :     0.035798  p :     0.100242
      px      :     0.038008
      py      :     0.026435

 19 H s       :     0.601692  s :     0.601692
      pz      :     0.056225  p :     0.245346
      px      :     0.128226
      py      :     0.060895

 20 H s       :     0.877687  s :     0.877687
      pz      :     0.042188  p :     0.108288
      px      :     0.057479
      py      :     0.008621



                      *****************************
                      * MAYER POPULATION ANALYSIS *
                      *****************************

  NA   - Mulliken gross atomic population
  ZA   - Total nuclear charge
  QA   - Mulliken gross atomic charge
  VA   - Mayer's total valence
  BVA  - Mayer's bonded valence
  FA   - Mayer's free valence

  ATOM       NA         ZA         QA         VA         BVA        FA
  0 C      6.0354     6.0000    -0.0354     3.8920     3.8920     0.0000
  1 C      6.0065     6.0000    -0.0065     3.8750     3.8750    -0.0000
  2 C      6.0390     6.0000    -0.0390     3.9070     3.9070    -0.0000
  3 C      5.7839     6.0000     0.2161     3.7612     3.7612     0.0000
  4 C      6.1185     6.0000    -0.1185     3.8978     3.8978     0.0000
  5 C      5.9772     6.0000     0.0228     3.9166     3.9166    -0.0000
  6 N      7.4564     7.0000    -0.4564     3.1148     3.1148    -0.0000
  7 C      5.7616     6.0000     0.2384     3.7985     3.7985    -0.0000
  8 C      6.0037     6.0000    -0.0037     3.8352     3.8352    -0.0000
  9 C      6.2892     6.0000    -0.2892     3.4260     3.4260     0.0000
 10 C      6.0228     6.0000    -0.0228     3.5225     3.5225    -0.0000
 11 C      6.0893     6.0000    -0.0893     3.2527     3.2527    -0.0000
 12 H      0.9780     1.0000     0.0220     0.9915     0.9915     0.0000
 13 H      0.9729     1.0000     0.0271     0.9912     0.9912    -0.0000
 14 H      0.9894     1.0000     0.0106     0.9970     0.9970     0.0000
 15 H      0.9965     1.0000     0.0035     0.9962     0.9962    -0.0000
 16 H      0.8461     1.0000     0.1539     0.9836     0.9836    -0.0000
 17 H      0.9620     1.0000     0.0380     1.0169     1.0169    -0.0000
 18 H      0.9137     1.0000     0.0863     0.9896     0.9896    -0.0000
 19 H      0.8126     1.0000     0.1874     1.0778     1.0778    -0.0000
 20 H      0.9454     1.0000     0.0546     1.0264     1.0264     0.0000

  Mayer bond orders larger than 0.100000
B(  0-C ,  1-C ) :   1.3482 B(  0-C ,  5-C ) :   1.4874 B(  0-C , 12-H ) :   0.9986 
B(  1-C ,  2-C ) :   1.4652 B(  1-C , 13-H ) :   0.9987 B(  2-C ,  3-C ) :   1.3282 
B(  2-C , 14-H ) :   1.0058 B(  3-C ,  4-C ) :   1.3132 B(  3-C ,  6-N ) :   1.0416 
B(  4-C ,  5-C ) :   1.3111 B(  4-C ,  8-C ) :   1.1929 B(  5-C , 15-H ) :   0.9992 
B(  6-N ,  7-C ) :   1.0064 B(  6-N , 16-H ) :   0.9528 B(  7-C ,  8-C ) :   1.6799 
B(  7-C , 17-H ) :   0.9906 B(  8-C ,  9-C ) :   0.9113 B(  9-C , 10-C ) :   1.1398 
B(  9-C , 11-C ) :   0.1275 B(  9-C , 18-H ) :   0.8091 B(  9-C , 19-H ) :   0.4424 
B( 10-C , 11-C ) :   1.9657 B( 10-C , 19-H ) :   0.4013 B( 11-C , 20-H ) :   1.0356 
B( 18-H , 19-H ) :   0.1632 

-------
TIMINGS
-------

Total SCF time: 0 days 0 hours 0 min 11 sec 

Total time                  ....      11.195 sec
Sum of individual times     ....       9.296 sec  ( 83.0%)

SCF preparation             ....       0.024 sec  (  0.2%)
Fock matrix formation       ....       9.240 sec  ( 82.5%)
  Startup                   ....       0.004 sec  (  0.0% of F)
  Coulomb+Exchange Fock     ....      11.122 sec  (120.4% of F)
Diagonalization             ....       0.000 sec  (  0.0%)
Density matrix formation    ....       0.002 sec  (  0.0%)
Total Energy calculation    ....       0.001 sec  (  0.0%)
Population analysis         ....       0.007 sec  (  0.1%)
Orbital Transformation      ....       0.004 sec  (  0.0%)
Orbital Orthonormalization  ....       0.000 sec  (  0.0%)
DIIS solution               ....       0.007 sec  (  0.1%)
SOSCF solution              ....       0.011 sec  (  0.1%)
Finished LeanSCF after  11.2 sec

Maximum memory used throughout the entire LEANSCF-calculation: 14.0 MB

-------------------------   --------------------
FINAL SINGLE POINT ENERGY      -475.362909978721
-------------------------   --------------------


------------------------------------------------------------------------------
                              ORCA PROPERTY CALCULATIONS
------------------------------------------------------------------------------

GBWName                                 ... indole.gbw
Number of atoms                         ...     21
Number of basis functions               ...    213
Max core memory                         ...   4096 MB

Electric properties:
Dipole moment                           ... YES
Quadrupole moment                       ...  NO
Static polarizability (Dipole/Dipole)   ...  NO
Static polarizability (Dipole/Quad.)    ...  NO
Static polarizability (Quad./Quad.)     ...  NO
Static polarizability (Velocity)        ...  NO
Static hyperpolarizability              ...  NO

Atomic electric properties:
Dipole moment                           ...  NO
Quadrupole moment                       ...  NO
Static polarizability                   ...  NO

Choice of electric origin               ... Center of mass
Position of electric origin             ...    16.334616   -21.320834     0.000000

General magnetic properties:
Magnetizability                         ...  NO

EPR properties:
g-Tensor (aka g-matrix)                 ...  NO
Zero-Field splitting spin-orbit         ...  NO
Zero-field splitting spin-spin          ...  NO
Hyperfine couplings                     ...  NO (   0 nuclei)
Quadrupole couplings                    ...  NO (   0 nuclei)
Contact density                         ...  NO (   0 nuclei)

NMR properties:
Chemical shifts                         ...  NO (   0 nuclei)
Spin-rotation constants                 ...  NO (   0 nuclei)
Spin-spin couplings                     ...  NO (   0 nuclei,    0 pairs)

Choice of magnetic origin               ... GIAO
Position of magnetic origin             ...     0.000000     0.000000     0.000000

Properties with geometric perturbations:
SCF Hessian                             ...  NO
IR spectrum                             ...  NO
VCD spectrum                            ...  NO
X-ray spectroscopy properties:
SCF XES/XAS/RIXS spectra                ...  NO

SCF SOC stabilization energy            ...  NO
Diagonal Born-Oppenheimer correction    ...  NO

-------------
DIPOLE MOMENT
-------------

Method             : SCF
Type of density    : Electron Density
Multiplicity       :   1
Irrep              :   0
Energy             :  -475.3629099787207224 Eh
Basis              : AO
                                X                 Y                 Z
Electronic contribution:      1.109969364      -1.576100937      -0.000000000
Nuclear contribution   :     -0.876677959       1.766211804       0.000000000
                        -----------------------------------------
Total Dipole Moment    :      0.233291405       0.190110867      -0.000000000
                        -----------------------------------------
Magnitude (a.u.)       :      0.300943552
Magnitude (Debye)      :      0.764937718



--------------------
Rotational spectrum 
--------------------
 
Rotational constants in cm-1:             0.073500             0.017154             0.013908 
Rotational constants in MHz :          2203.459766           514.272272           416.957317 

Dipole components along the rotational axes: 
x,y,z [a.u.] :    -0.296707     0.050318    -0.000000 
x,y,z [Debye]:    -0.754170     0.127898    -0.000000 

 

Dipole moment calculation done in   0.0 sec 

Maximum memory used throughout the entire PROP-calculation: 9.7 MB

--------------------------------
SUGGESTED CITATIONS FOR THIS RUN
--------------------------------

Below you find a list of papers that are relevant to this ORCA run
We neither can nor want to force you to cite these papers, but we appreciate if you do
You receive ORCA, which is the product of decades of hard work by many enthusiastic individuals, for free
The only thing we kindly ask in return is that you cite our papers,
We deeply appreciate it, if you show your appreciation for ORCA by not just citing the generic ORCA reference.

Please note that relegating all ORCA citations to the supporting information does *not* help us.
SI sections are not indexed - citations you put there will not count into any citation statistics
But we need these citations in order to attract the funding resources that allow us to do what we are doing

Therefore, if you are a happy ORCA user, please consider citing a few of the papers listed below in the main body of your paper

In addition to the list printed below, the program has created the file indole.bibtex that contains the list in bibtex format
You can import this file easily into all common literature databanks and citation aid programs


List of essential papers. We consider these as the minimum necessary citations

  1. Neese, F.
     Software update: the ORCA program system, version 6.0
     WIRES Comput. Molec. Sci. 2025 15(1), e70019
     doi.org/10.1002/wcms.7019

List of papers to cite with high priority. The work reported in these papers was absolutely
necessary for this run to complete.
Our perspective: the developers of density functionals and basis sets usually get cited in chemistry papers
Good! But without the algorithms to do something with them, the functionals or basis sets would not do anything.
Hence, in our opinion, the algorithm design and method developments papers are equally worthy of getting cited

  1. Neese, F.
     The SHARK Integral Generation and Digestion System
     J. Comp. Chem. 2022 44(3), 381
     doi.org/10.1002/jcc.26942

List of suggested additional citations. These are papers that are important in the 'surrounding' of 
of this run, or papers that preceded the highly important papers. If you like your results we are grateful for a citation.

  1. Neese, F.
     The ORCA program system
     WIRES Comput. Molec. Sci. 2012 2(1), 73-78
     doi.org/10.1002/wcms.81
  2. Neese, F.
     Software update: the ORCA program system, version 4.0
     WIRES Comput. Molec. Sci. 2018 8(1), 1-6
     doi.org/10.1002/wcms.1327
  3. Neese, F.; Wennmohs, F.; Becker, U.; Riplinger, C.
     The ORCA quantum chemistry program package
     J. Chem. Phys. 2020 152(22), 224108
     doi.org/10.1063/5.0004608
  4. Neese, F.
     Software update: The ORCA program system—Version 5.0
     WIRES Comput. Molec. Sci. 2022 12(1), e1606
     doi.org/10.1002/wcms.1606

List of optional additional citations

  1. Neese, F.
     Approximate second-order SCF convergence for spin unrestricted wavefunctions
     Chem. Phys. Lett. 2000 325(1-3), 93-98
     doi.org/10.1016/s0009-2614(00)00662-x

Timings for individual modules:

Sum of individual times          ...       12.439 sec (=   0.207 min)
Startup calculation              ...        0.946 sec (=   0.016 min)   7.6 %
SCF iterations                   ...       11.396 sec (=   0.190 min)  91.6 %
Property calculations            ...        0.097 sec (=   0.002 min)   0.8 %
                             ****ORCA TERMINATED NORMALLY****
TOTAL RUN TIME: 0 days 0 hours 0 minutes 12 seconds 584 msec
