
                                 *****************
                                 * O   R   C   A *
                                 *****************

                                            #,                                       
                                            ###                                      
                                            ####                                     
                                            #####                                    
                                            ######                                   
                                           ########,                                 
                                     ,,################,,,,,                         
                               ,,#################################,,                 
                          ,,##########################################,,             
                       ,#########################################, ''#####,          
                    ,#############################################,,   '####,        
                  ,##################################################,,,,####,       
                ,###########''''           ''''###############################       
              ,#####''   ,,,,##########,,,,          '''####'''          '####       
            ,##' ,,,,###########################,,,                        '##       
           ' ,,###''''                  '''############,,,                           
         ,,##''                                '''############,,,,        ,,,,,,###''
      ,#''                                            '''#######################'''  
     '                                                          ''''####''''         
             ,#######,   #######,   ,#######,      ##                                
            ,#'     '#,  ##    ##  ,#'     '#,    #''#        ,####,    ,#,          
            ##       ##  ##   ,#'  ##            #'  '#       #'       ,# #          
            ##       ##  #######   ##           ,######,      #####,      #          
            '#,     ,#'  ##    ##  '#,     ,#' ,#      #,     #,   #      #          
             '#######'   ##     ##  '#######'  #'      '#     '####' #    #          



                #########################################################
                #                        -***-                          #
                #          Department of theory and spectroscopy        #
                #                                                       #
                #                      Frank Neese                      #
                #                                                       #
                #     Directorship, Architecture, Infrastructure        #
                #                    SHARK, DRIVERS                     #
                #        Core code/Algorithms in most modules           #
                #                                                       #
                #        Max Planck Institute fuer Kohlenforschung      #
                #                Kaiser Wilhelm Platz 1                 #
                #                 D-45470 Muelheim/Ruhr                 #
                #                      Germany                          #
                #                                                       #
                #                  All rights reserved                  #
                #                        -***-                          #
                #########################################################


                         Program Version 6.1.0  -  RELEASE   -
                                (GIT: $679e74b7b5$)
                          ($2025-06-10 18:02:51 +0200$)


 With contributions from (in alphabetic order):
[Max-Planck-Institut fuer Kohlenforschung]                               
  Daniel Aravena         : Magnetic Suceptibility                        
  Michael Atanasov       : Ab Initio Ligand Field Theory (pilot matlab implementation)
  Alexander A. Auer      : GIAO ZORA, VPT2 properties, NMR spectrum      
  Ute Becker             : All parallelization in ORCA, NUMFREQ, NUMCALC 
  Giovanni Bistoni       : ED, misc. LED, open-shell LED, HFLD           
  Dmytro Bykov           : pre 5.0 version of the SCF Hessian            
  Marcos Casanova-Páez   : Triplet and SCS-CIS(D). UHF-(DLPNO)-IP/EA/STEOM-CCSD. UHF-CVS-IP/STEOM-CCSD   
  Vijay G. Chilkuri      : MRCI spin determinant printing, contributions to CSF-ICE 
  Pauline Colinet        : FMM embedding                                 
  Dipayan Datta          : RHF DLPNO-CCSD density                        
  Achintya Kumar Dutta   : EOM-CC, STEOM-CC                              
  Nicolas Foglia         : Exact transition moments, OPA infrastructure, MCD improvements    
  Dmitry Ganyushin       : Spin-Orbit,Spin-Spin,Magnetic field MRCI      
  Miquel Garcia-Rates    : C-PCM and meta-GGA Hessian, CCSD/C-PCM, Gaussian charge scheme 
  Tiago L. C. Gouveia    : GS-ROHF, GS-ROCIS                             
  Yang Guo               : DLPNO-NEVPT2, F12-NEVPT2, CIM, IAO-localization        
  Andreas Hansen         : Spin unrestricted coupled pair/coupled cluster methods 
  Ingolf Harden          : AUTO-CI MPn and infrastructure                
  Benjamin Helmich-Paris : MC-RPA, TRAH-(SCF,CASSCF), AVAS, COSX integrals, SCF dyn. polar., MC-PDFT, srDFT 
  Lee Huntington         : MR-EOM, pCC                                   
  Robert Izsak           : Overlap fitted RIJCOSX, COSX-SCS-MP3, EOM     
  Riya Kayal             : Wick's Theorem for AUTO-CI, AUTO-CI UHF-CCSDT 
  Emily Kempfer          : AUTO-CI RHF CISDT and CCSDT, approximate NEVPT4
  Christian Kollmar      : KDIIS, OOCD, Brueckner-CCSD(T), CCSD density, CASPT2, CASPT2-K, improved NEVPT2 
  Axel Koslowski         : Symmetry handling                             
  Simone Kossmann        : meta-GGA functionals, TD-DFT gradient, OOMP2, (MP2 Hessian; deprecated post 5.0) 
  Lucas Lang             : DCDCAS, Hyperfine gauge corrections, ICE-SOC+SSC
  Marvin Lechner         : AUTO-CI (C++ implementation), FIC-MRCC        
  Spencer Leger          : CASSCF response                               
  Dagmar Lenk            : GEPOL surface, SMD, ORCA-2-JSON               
  Dimitrios Liakos       : Extrapolation schemes; Compound Job, Property file
  Dimitrios Manganas     : Further ROCIS development; embedding schemes. LFT, Crystal Embedding 
  Dimitrios Pantazis     : SARC Basis sets                               
  Anastasios Papadopoulos: AUTO-CI, single reference methods and gradients 
  Taras Petrenko         : pre 6.0 DFT Hessian and TD-DFT gradient,  ECA, NRVS 
  Petra Pikulova         : Analytic Raman intensities                    
  Peter Pinski           : DLPNO-MP2, DLPNO-MP2 Gradient                 
  Shashank Vittal Rao    : ES-AILFT, MagRelax                            
  Christoph Reimann      : Effective Core Potentials                     
  Marius Retegan         : Local ZFS, SOC                                
  Christoph Riplinger    : Optimizer, TS searches, QM/MM, DLPNO-CCSD(T), (RO)-DLPNO pert. Triples 
  Michael Roemelt        : Original ROCIS implementation, recursive CI coupling coefficients
  Masaaki Saitow         : Open-shell DLPNO-CCSD energy and density      
  Barbara Sandhoefer     : DKH picture change effects                    
  Yorick L. A. Schmerwitz: GMF and freeze-and-release deltaSCF, NEB S-IDPP initial path                    
  Kantharuban Sivalingam : CASSCF convergence/infrastructure, NEVPT2, NEVPT3, NEVPT4(SD), FIC-MRCI and CEPA variants
  Bernardo de Souza      : ESD, SOC TD-DFT                               
  Georgi L. Stoychev     : AutoAux, RI-MP2 NMR, DLPNO-MP2 response, X2C  
  Van Anh Tran           : RI-MP2 g-tensors                              
  Willem Van den Heuvel  : Paramagnetic NMR                              
  Zikuan Wang            : NOTCH, Electric field optimization            
  Frank Wennmohs         : Technical directorship and infrastructure     
  Hang Xu                : AUTO-CI-Response properties                   
                                                                         
[FACCTs GmbH]                                                            
  Markus Bursch, Nicolas Foglia, Miquel Garcia-Rates, Ingolf Harden, Hagen Neugebauer, Anastasios Papadopoulos, 
  Christoph Riplinger, Bernardo de Souza, Georgi L. Stoychev                                                    
                                                                 
  APM, various basis sets, CI-OPT, improved COSX, DLPNO-Multilevel,           
  DOCKER, DRACO, updates on ESD, Fragmentator, GOAT, IRC, LR-CPCM, L-BFGS, MBIS, meta-GGA TD-DFT gradient, ML-optimized integration grids, 
  MM, NACMEs, nearIR, NEB, NEB-TS, NL-DFT gradient (VV10), 2- and 3-layer-ONIOM, interface openCOSMO-RS, QMMM,   
  Crystal-QMMM, RESP, rigid body optimization, SF, symmetry and pop. for TD-DFT, various functionals, SOLVATOR                                   
                                                                         
[Other institutions]                                                     
  V. Asgeirsson          : NEB                                           
  Christoph Bannwarth    : sTDA-DFT, sTD-DFT, PBEh-3c, B97-3c, D3        
  Giovanni Bistoni       : ETS/NOCV, ADLD/ADEX, COVALED                  
  Martin Brehm           : Molecular dynamics                            
  Ronald Cardenas        : ETS/NOCV                                      
  Martina Colucci        : COVALED                                       
  Sebastian Ehlert       : rSCAN, r2SCAN, r2SCAN-3c, D4, dhf basis sets  
  Marvin Friede          : D4 for Fr, Ra, Ac-Lr                          
  Lars Goerigk           : TD-DFT with DH, B97 family of functionals     
  Stefan Grimme          : VdW corrections, initial TS optimization, DFT functionals, gCP, sTDA/sTD-DF 
  Waldemar Hujo          : DFT-NL                                        
  H. Jonsson             : NEB                                           
  Holger Kruse           : gCP                                           
  Marcel Mueller         : wB97X-3c, vDZP basis set                      
  Hagen Neugebauer       : wr2SCAN, Native XTB                           
  Gianluca Regni         : ADLD/ADEX                                     
  Tobias Risthaus        : pre 6.0 range-separated hybrid DFT and stability analysis
  Lukas Wittmann         : regularized MP2, r2SCAN double-hybrids, wr2SCAN        
                                                                         
We gratefully acknowledge several colleagues who have allowed us to      
interface, adapt or use parts of their codes:                            
  Ed Valeev, F. Pavosevic, A. Kumar             : LibInt (2-el integral package), F12 methods 
  Garnet Chan, S. Sharma, J. Yang, R. Olivares  : DMRG                   
  Ulf Ekstrom                                   : XCFun DFT Library      
  Mihaly Kallay                                 : mrcc  (arbitrary order and MRCC methods)
  Frank Weinhold                                : gennbo (NPA and NBO analysis)           
  Simon Mueller                                 : openCOSMO-RS                            
  Christopher J. Cramer and Donald G. Truhlar   : smd solvation model                     
  S Lehtola, MJT Oliveira, MAL Marques          : LibXC Library                           
  Liviu Ungur et al                             : ANISO software                          


 Your calculation uses the libint2 library for the computation of 2-el integrals
 For citations please refer to: http://libint.valeyev.net

 Your ORCA version has been built with support for libXC version: 7.0.0
 For citations please refer to: https://libxc.gitlab.io

 This ORCA versions uses:
   CBLAS   interface :  Fast vector & matrix operations
   LAPACKE interface :  Fast linear algebra routines
   SCALAPACK package :  Parallel linear algebra routines
   Shared memory     :  Shared parallel matrices


  ***********************************
  * Starting time: Sun Aug 31 16:27:44 2025
  * Host name:     Tommasos-MacBook-Air-4.local
  * Process ID:    8221
  * Working dir.:  /Users/tommasocolombo/Desktop/ORCA calculations/Indole/Propargyl_indole
  ***********************************

================================================================================

----- Orbital basis set information -----
Your calculation utilizes the basis: def2-SVP
   F. Weigend and R. Ahlrichs, Phys. Chem. Chem. Phys. 7, 3297 (2005).

================================================================================
                                        WARNINGS
                       Please study these warnings very carefully!
================================================================================

WARNING: Old DensityContainer found on disk!
         Will remove this file - 
         If you want to keep old densities, please start your calculation with a different basename. 


================================================================================
                                       INPUT FILE
================================================================================
NAME = indole.inp
|  1> ! HF DEF2-SVP
|  2> * XYZ 0 1
|  3> N         18.51030      -12.55830        0.00000
|  4> C         16.82490      -12.01560        0.00000
|  5> C         16.82490      -10.23440        0.00000
|  6> C         18.51030       -9.69150        0.00000
|  7> C         15.28220      -12.90620        0.00000
|  8> C         15.28220       -9.34380        0.00000
|  9> C         19.54980      -11.12500        0.00000
| 10> C         13.73970      -12.01560        0.00000
| 11> C         13.73970      -10.23440        0.00000
| 12> H         18.85330      -13.60800        0.00000
| 13> H         18.85330       -8.64180        0.00000
| 14> H         15.28220      -14.01050        0.00000
| 15> H         15.28220       -8.23950        0.00000
| 16> H         20.65410      -11.12500        0.00000
| 17> H         12.78340      -12.56780        0.00000
| 18> H         12.78340       -9.68220        0.00000
| 19> **                         ****END OF INPUT****
================================================================================

                       ****************************
                       * Single Point Calculation *
                       ****************************

---------------------------------
CARTESIAN COORDINATES (ANGSTROEM)
---------------------------------
  N     18.510300  -12.558300    0.000000
  C     16.824900  -12.015600    0.000000
  C     16.824900  -10.234400    0.000000
  C     18.510300   -9.691500    0.000000
  C     15.282200  -12.906200    0.000000
  C     15.282200   -9.343800    0.000000
  C     19.549800  -11.125000    0.000000
  C     13.739700  -12.015600    0.000000
  C     13.739700  -10.234400    0.000000
  H     18.853300  -13.608000    0.000000
  H     18.853300   -8.641800    0.000000
  H     15.282200  -14.010500    0.000000
  H     15.282200   -8.239500    0.000000
  H     20.654100  -11.125000    0.000000
  H     12.783400  -12.567800    0.000000
  H     12.783400   -9.682200    0.000000

----------------------------
CARTESIAN COORDINATES (A.U.)
----------------------------
  NO LB      ZA    FRAG     MASS         X           Y           Z
   0 N     7.0000    0    14.007   34.979398  -23.731748    0.000000
   1 C     6.0000    0    12.011   31.794453  -22.706193    0.000000
   2 C     6.0000    0    12.011   31.794453  -19.340213    0.000000
   3 C     6.0000    0    12.011   34.979398  -18.314281    0.000000
   4 C     6.0000    0    12.011   28.879173  -24.389183    0.000000
   5 C     6.0000    0    12.011   28.879173  -17.657223    0.000000
   6 C     6.0000    0    12.011   36.943768  -21.023203    0.000000
   7 C     6.0000    0    12.011   25.964270  -22.706193    0.000000
   8 C     6.0000    0    12.011   25.964270  -19.340213    0.000000
   9 H     1.0000    0     1.008   35.627574  -25.715393    0.000000
  10 H     1.0000    0     1.008   35.627574  -16.330635    0.000000
  11 H     1.0000    0     1.008   28.879173  -26.476008    0.000000
  12 H     1.0000    0     1.008   28.879173  -15.570398    0.000000
  13 H     1.0000    0     1.008   39.030593  -21.023203    0.000000
  14 H     1.0000    0     1.008   24.157125  -23.749700    0.000000
  15 H     1.0000    0     1.008   24.157125  -18.296706    0.000000

--------------------------------
INTERNAL COORDINATES (ANGSTROEM)
--------------------------------
 N      0   0   0     0.000000000000     0.00000000     0.00000000
 C      1   0   0     1.770620357389     0.00000000     0.00000000
 C      2   1   0     1.781200000000   107.84859551     0.00000000
 C      3   2   1     1.770681668172   107.85475564     0.00000000
 C      2   1   3     1.781317391708   132.15358447   180.00000000
 C      3   2   1     1.781317391708   119.99782002   180.00000000
 C      1   2   3     1.770567462708   108.10288254     0.00000000
 C      5   2   1     1.781144185629   120.00114338   180.00000085
 C      6   3   2     1.781144185629   120.00114338     0.00000000
 H      1   2   3     1.104318382533   125.94391811   180.00000000
 H      4   3   2     1.104318382533   125.95007824   180.00000085
 H      5   2   1     1.104300000000   119.99782002     0.00000000
 H      6   3   2     1.104300000000   119.99782002   180.00000085
 H      7   1   2     1.104300000000   125.95147805   180.00000085
 H      8   5   2     1.104280095809   119.99537149   180.00000000
 H      9   6   3     1.104280095809   119.99537149   180.00000000

---------------------------
INTERNAL COORDINATES (A.U.)
---------------------------
 N      0   0   0     0.000000000000     0.00000000     0.00000000
 C      1   0   0     3.345987562611     0.00000000     0.00000000
 C      2   1   0     3.365980189741   107.84859551     0.00000000
 C      3   2   1     3.346103423200   107.85475564     0.00000000
 C      2   1   3     3.366202027918   132.15358447   180.00000000
 C      3   2   1     3.366202027918   119.99782002   180.00000000
 C      1   2   3     3.345887606150   108.10288254     0.00000000
 C      5   2   1     3.365874715865   120.00114338   180.00000085
 C      6   3   2     3.365874715865   120.00114338     0.00000000
 H      1   2   3     2.086859307642   125.94391811   180.00000000
 H      4   3   2     2.086859307642   125.95007824   180.00000085
 H      5   2   1     2.086824569689   119.99782002     0.00000000
 H      6   3   2     2.086824569689   119.99782002   180.00000085
 H      7   1   2     2.086824569689   125.95147805   180.00000085
 H      8   5   2     2.086786956219   119.99537149   180.00000000
 H      9   6   3     2.086786956219   119.99537149   180.00000000

---------------------
BASIS SET INFORMATION
---------------------
There are 3 groups of distinct atoms

 Group   1 Type N   : 7s4p1d contracted to 3s2p1d pattern {511/31/1}
 Group   2 Type C   : 7s4p1d contracted to 3s2p1d pattern {511/31/1}
 Group   3 Type H   : 4s1p contracted to 2s1p pattern {31/1}

Atom   0N    basis set group =>   1
Atom   1C    basis set group =>   2
Atom   2C    basis set group =>   2
Atom   3C    basis set group =>   2
Atom   4C    basis set group =>   2
Atom   5C    basis set group =>   2
Atom   6C    basis set group =>   2
Atom   7C    basis set group =>   2
Atom   8C    basis set group =>   2
Atom   9H    basis set group =>   3
Atom  10H    basis set group =>   3
Atom  11H    basis set group =>   3
Atom  12H    basis set group =>   3
Atom  13H    basis set group =>   3
Atom  14H    basis set group =>   3
Atom  15H    basis set group =>   3

Checking for AutoStart:
The File: indole.gbw exists
Trying to determine its content:
     ... Fine, the file contains calculation information
     ... Fine, the calculation information was read
     ... Fine, the file contains a basis set
     ... Fine, the basis set was read
     ... Fine, the file contains a geometry
     ... Fine, the geometry was read
     ... Fine, the file contains a set of orbitals
     ... Fine, the orbitals can be read
     => possible old guess file was deleted
     => GBW file was renamed to GES file
     => GES file is set as startup file
     => Guess is set to MORead
     ... now leaving AutoStart

------------------------------------------------------------------------------
                             ORCA STARTUP CALCULATIONS
------------------------------------------------------------------------------
------------------------------------------------------------------------------
                   ___                                                        
                  /   \      - P O W E R E D   B Y -                         
                 /     \                                                     
                 |  |  |   _    _      __       _____    __    __             
                 |  |  |  | |  | |    /  \     |  _  \  |  |  /  |          
                  \  \/   | |  | |   /    \    | | | |  |  | /  /          
                 / \  \   | |__| |  /  /\  \   | |_| |  |  |/  /          
                |  |  |   |  __  | /  /__\  \  |    /   |      \           
                |  |  |   | |  | | |   __   |  |    \   |  |\   \          
                \     /   | |  | | |  |  |  |  | |\  \  |  | \   \       
                 \___/    |_|  |_| |__|  |__|  |_| \__\ |__|  \__/        
                                                                              
                      - O R C A' S   B I G   F R I E N D -                    
                                      &                                       
                       - I N T E G R A L  F E E D E R -                       
                                                                              
 v1 FN, 2020, v2 2021, v3 2022-2024                                           
------------------------------------------------------------------------------


----------------------
SHARK INTEGRAL PACKAGE
----------------------

Number of atoms                             ...     16
Number of basis functions                   ...    161
Number of shells                            ...     75
Maximum angular momentum                    ...      2
Integral batch strategy                     ... SHARK/LIBINT Hybrid
RI-J (if used) integral strategy            ... SPLIT-RIJ (Revised 2003 algorithm where possible)
Printlevel                                  ...      1
Contraction scheme used                     ... SEGMENTED contraction
Prescreening option                         ... SCHWARTZ
   Thresh                                   ... 1.000e-10
   Tcut                                     ... 1.000e-11
   Tpresel                                  ... 1.000e-11 
Coulomb Range Separation                    ... NOT USED
Exchange Range Separation                   ... NOT USED
Multipole approximations                    ... NOT USED
Finite Nucleus Model                        ... NOT USED
CABS basis                                  ... NOT available
Auxiliary Coulomb fitting basis             ... NOT available
Auxiliary J/K fitting basis                 ... NOT available
Auxiliary Correlation fitting basis         ... NOT available
Auxiliary 'external' fitting basis          ... NOT available

Checking pre-screening integrals            ... done (  0.0 sec) Dimension = 75
   => SHARK Basis and OBASIS are compatible. Storing Pre-screening
Shell pair information
Shell pair cut-off parameter TPreSel        ...   1.0e-11
Total number of shell pairs                 ...      2850
Shell pairs after pre-screening             ...      2508
Total number of primitive shell pairs       ...     10434
Primitive shell pairs kept                  ...      6473
          la=0 lb=0:    770 shell pairs
          la=1 lb=0:    902 shell pairs
          la=1 lb=1:    288 shell pairs
          la=2 lb=0:    318 shell pairs
          la=2 lb=1:    192 shell pairs
          la=2 lb=2:     38 shell pairs

Checking whether 4 symmetric matrices of dimension 161 fit in memory
:Max Core in MB      =   4096.00
 MB in use           =      3.73
 MB left             =   4092.27
 MB needed           =      0.40
 Data fit in memory  = YES
Calculating Nuclear repulsion               ... done (  0.0 sec) ENN=    321.546182818053 Eh

Diagonalization of the overlap matrix:
Smallest eigenvalue                        ... 2.912e-03
Time for diagonalization                   ...    0.004 sec
Threshold for overlap eigenvalues          ... 1.000e-07
Number of eigenvalues below threshold      ... 0
Time for construction of square roots      ...    0.004 sec
Total time needed                          ...    0.008 sec

-------------------
DFT GRID GENERATION
-------------------

General Integration Accuracy     IntAcc      ... 4.388
Radial Grid Type                 RadialGrid  ... OptM3 with GC (2021)
Angular Grid (max. ang.)         AngularGrid ... 4 (Lebedev-302)
Angular grid pruning method      GridPruning ... 4 (adaptive)
Weight generation scheme         WeightScheme... mBecke (2022)
Basis function cutoff            BFCut       ... 1.0000e-10
Integration weight cutoff        WCut        ... 1.0000e-14
Partially contracted basis set               ... off
Rotationally invariant grid construction     ... off
Angular grids for H and He will be reduced by one unit

Total number of grid points                  ...    77358
Total number of batches                      ...     1217
Average number of points per batch           ...       63
Average number of grid points per atom       ...     4835
Grids setup in   0.5 sec
Initializing property integral containers    ... done (  0.0 sec)

SHARK setup successfully completed in   0.6 seconds

Maximum memory used throughout the entire STARTUP-calculation: 28.1 MB
-------------------------------------------------------------------------------
                                 ORCA GUESS
                   Start orbitals & Density for SCF / CASSCF
-------------------------------------------------------------------------------

------------
SCF SETTINGS
------------
Hamiltonian:
 Ab initio Hamiltonian  Method          .... Hartree-Fock(GTOs)


General Settings:
 Integral files         IntName         .... indole
 Hartree-Fock type      HFTyp           .... RHF
 Total Charge           Charge          ....    0
 Multiplicity           Mult            ....    1
 Number of Electrons    NEL             ....   62
 Basis Dimension        Dim             ....  161
 Nuclear Repulsion      ENuc            ....    321.5461828181 Eh

Convergence Acceleration:
 AO-DIIS                CNVDIIS         .... on
   Start iteration      DIISMaxIt       ....    12
   Startup error        DIISStart       ....  0.200000
   # of expansion vecs  DIISMaxEq       ....     5
   Bias factor          DIISBfac        ....   1.050
   Max. coefficient     DIISMaxC        ....  10.000
 MO-DIIS                CNVKDIIS        .... off
 Trust-Rad. Augm. Hess. CNVTRAH         .... auto
   Auto Start mean grad. ratio tolernc. ....  1.125000
   Auto Start start iteration           ....     1
   Auto Start num. interpolation iter.  ....    10
   Max. Number of Micro iterations      ....    24
   Max. Number of Macro iterations      .... Maxiter - #DIIS iter
   Number of Davidson start vectors     ....     2
   Converg. threshold    (grad. norm)   ....   5.000e-05
   Grad. Scal. Fac. for Micro threshold ....   0.100
   Minimum threshold for Micro iter.    ....   1.000e-02
   NR start threshold (gradient norm)   ....   1.000e-04
   Initial trust radius                 ....   0.400
   Minimum AH scaling param. (alpha)    ....   1.000
   Maximum AH scaling param. (alpha)    .... 1000.000
   Quad. conv. algorithm                .... NR
   White noise on init. David. guess    .... on
   Maximum white noise                  ....   0.010
   Pseudo random numbers                .... off
   Inactive MOs                         .... canonical
   Orbital update algorithm             .... Taylor
   Preconditioner                       .... Diag
   Full preconditioner red. dimension   ....   250
 SOSCF                 CNVSOSCF           .... on
   Start iteration     SOSCFMaxIt         ....   150
   Startup grad/error  SOSCFStart         ....  0.003300
   Hessian update      SOSCFHessUp        .... L-BFGS
   Autom. constraints  SOSCFAutoConstrain .... off
 Level Shifting         CNVShift        .... on
   Level shift para.    LevelShift      ....    0.2500
   Turn off err/grad.   ShiftErr        ....    0.0010
 Zerner damping         CNVZerner       .... off
 Static damping         CNVDamp         .... on
   Fraction old density DampFac         ....    0.7000
   Max. Damping (<1)    DampMax         ....    0.9800
   Min. Damping (>=0)   DampMin         ....    0.0000
   Turn off err/grad.   DampErr         ....    0.1000

SCF Procedure:
 Maximum # iterations   MaxIter         ....   125
 SCF integral mode      SCFMode         .... Direct
   Integral package                     .... SHARK and LIBINT hybrid scheme
 Reset frequency        DirectResetFreq ....    20
 Integral Threshold     Thresh          ....  1.000e-10 Eh
 Primitive CutOff       TCut            ....  1.000e-11 Eh

Convergence Tolerance:
 Convergence Check Mode ConvCheckMode   .... Total+1el-Energy
 Convergence forced     ConvForced      .... 0
 Energy Change          TolE            ....  1.000e-06 Eh
 1-El. energy change                    ....  1.000e-03 Eh
 Orbital Gradient       TolG            ....  5.000e-05
 Orbital Rotation angle TolX            ....  5.000e-05
 DIIS Error             TolErr          ....  1.000e-06

---------------------
INITIAL GUESS: MOREAD
---------------------
Guess MOs are being read from file: indole.ges
Input Geometry matches current geometry (good)
Input basis set matches current basis set (good)
Occupation numbers will be reassigned to an Aufbau configuration
MOs were renormalized
MOs were reorthogonalized (Cholesky)
                      ------------------
                      INITIAL GUESS DONE (   0.0 sec)
                      ------------------
             **** ENERGY FILE WAS UPDATED (indole.en.tmp) ****
Finished Guess after   0.0 sec
Maximum memory used throughout the entire GUESS-calculation: 8.1 MB

-------------------------------------------------------------------------------------------
                                      ORCA LEAN-SCF
                              memory conserving SCF solver
-------------------------------------------------------------------------------------------

----------------------------------------D-I-I-S--------------------------------------------
Iteration    Energy (Eh)           Delta-E    RMSDP     MaxDP     DIISErr   Damp  Time(sec)
-------------------------------------------------------------------------------------------
               ***  Starting incremental Fock matrix formation  ***
                              *** Initializing SOSCF ***
---------------------------------------S-O-S-C-F--------------------------------------
Iteration    Energy (Eh)           Delta-E    RMSDP     MaxDP     MaxGrad    Time(sec)
--------------------------------------------------------------------------------------
    1    -360.3509079095535412     0.00e+00  2.06e-06  8.26e-05  1.39e-05     1.5
               *** Restarting incremental Fock matrix formation ***
    2    -360.3509079407709237    -3.12e-08  1.86e-06  4.80e-05  1.97e-05     1.4
    3    -360.3509079588461077    -1.81e-08  3.26e-06  1.06e-04  1.41e-05     0.8
                 **** Energy Check signals convergence ****

               *****************************************************
               *                     SUCCESS                       *
               *           SCF CONVERGED AFTER   3 CYCLES          *
               *****************************************************

             **** ENERGY FILE WAS UPDATED (indole.en.tmp) ****

----------------
TOTAL SCF ENERGY
----------------

Total Energy       :       -360.35090797647405 Eh           -9805.64672 eV

Components:
Nuclear Repulsion  :        321.54618281805330 Eh            8749.71646 eV
Electronic Energy  :       -681.89709079452734 Eh          -18555.36318 eV
One Electron Energy:      -1123.61059975511466 Eh          -30574.99882 eV
Two Electron Energy:        441.71350896058732 Eh           12019.63565 eV

Virial components:
Potential Energy   :       -713.61945107936276 Eh          -19418.57249 eV
Kinetic Energy     :        353.26854310288866 Eh            9612.92577 eV
Virial Ratio       :          2.02004810508000

---------------
SCF CONVERGENCE
---------------

  Last Energy change         ...    1.8075e-08  Tolerance :   1.0000e-06
  Last MAX-Density change    ...    1.0606e-04  Tolerance :   1.0000e-05
  Last RMS-Density change    ...    3.2560e-06  Tolerance :   1.0000e-06
  Last DIIS Error            ...    8.2430e-05  Tolerance :   1.0000e-06
  Last Orbital Gradient      ...    1.4062e-05  Tolerance :   5.0000e-05
  Last Orbital Rotation      ...    9.9457e-05  Tolerance :   5.0000e-05


----------------
ORBITAL ENERGIES
----------------

  NO   OCC          E(Eh)            E(eV) 
   0   2.0000     -15.631997      -425.3683 
   1   2.0000     -11.390626      -309.9547 
   2   2.0000     -11.375263      -309.5366 
   3   2.0000     -11.360589      -309.1373 
   4   2.0000     -11.344412      -308.6971 
   5   2.0000     -11.343254      -308.6656 
   6   2.0000     -11.342521      -308.6457 
   7   2.0000     -11.336856      -308.4915 
   8   2.0000     -11.335970      -308.4674 
   9   2.0000      -1.076173       -29.2841 
  10   2.0000      -0.966764       -26.3070 
  11   2.0000      -0.930519       -25.3207 
  12   2.0000      -0.898201       -24.4413 
  13   2.0000      -0.881357       -23.9830 
  14   2.0000      -0.801614       -21.8130 
  15   2.0000      -0.768902       -20.9229 
  16   2.0000      -0.756747       -20.5921 
  17   2.0000      -0.659348       -17.9418 
  18   2.0000      -0.628031       -17.0896 
  19   2.0000      -0.591635       -16.0992 
  20   2.0000      -0.547760       -14.9053 
  21   2.0000      -0.520355       -14.1596 
  22   2.0000      -0.504173       -13.7193 
  23   2.0000      -0.484141       -13.1741 
  24   2.0000      -0.462161       -12.5760 
  25   2.0000      -0.452700       -12.3186 
  26   2.0000      -0.452565       -12.3149 
  27   2.0000      -0.378483       -10.2990 
  28   2.0000      -0.329113        -8.9556 
  29   2.0000      -0.278181        -7.5697 
  30   2.0000      -0.261380        -7.1125 
  31   0.0000       0.031397         0.8544 
  32   0.0000       0.063843         1.7373 
  33   0.0000       0.104180         2.8349 
  34   0.0000       0.110848         3.0163 
  35   0.0000       0.165128         4.4934 
  36   0.0000       0.190852         5.1934 
  37   0.0000       0.191767         5.2182 
  38   0.0000       0.193311         5.2603 
  39   0.0000       0.195517         5.3203 
  40   0.0000       0.200693         5.4611 
  41   0.0000       0.226795         6.1714 
*Only the first 10 virtual orbitals were printed.

                    ********************************
                    * MULLIKEN POPULATION ANALYSIS *
                    ********************************

-----------------------
MULLIKEN ATOMIC CHARGES
-----------------------
   0 N :   -0.543239
   1 C :    0.153120
   2 C :   -0.115289
   3 C :   -0.121325
   4 C :   -0.107239
   5 C :   -0.058991
   6 C :    0.099967
   7 C :   -0.086797
   8 C :   -0.110704
   9 H :    0.228078
  10 H :    0.110657
  11 H :    0.104623
  12 H :    0.105100
  13 H :    0.128948
  14 H :    0.108305
  15 H :    0.104786
Sum of atomic charges:   -0.0000000

--------------------------------
MULLIKEN REDUCED ORBITAL CHARGES
--------------------------------
  0 N s       :     3.606947  s :     3.606947
      pz      :     1.794620  p :     3.923879
      px      :     1.052882
      py      :     1.076377
      dz2     :     0.001055  d :     0.012413
      dxz     :     0.001173
      dyz     :     0.000433
      dx2y2   :     0.004912
      dxy     :     0.004841

  1 C s       :     3.281452  s :     3.281452
      pz      :     0.941852  p :     2.535162
      px      :     0.714788
      py      :     0.878522
      dz2     :     0.002692  d :     0.030266
      dxz     :     0.004192
      dyz     :     0.002433
      dx2y2   :     0.012324
      dxy     :     0.008626

  2 C s       :     3.295000  s :     3.295000
      pz      :     1.005964  p :     2.792787
      px      :     0.916681
      py      :     0.870142
      dz2     :     0.002586  d :     0.027502
      dxz     :     0.003117
      dyz     :     0.001989
      dx2y2   :     0.012066
      dxy     :     0.007744

  3 C s       :     3.280907  s :     3.280907
      pz      :     1.093547  p :     2.816010
      px      :     0.813101
      py      :     0.909362
      dz2     :     0.002671  d :     0.024408
      dxz     :     0.002338
      dyz     :     0.001306
      dx2y2   :     0.009182
      dxy     :     0.008912

  4 C s       :     3.272630  s :     3.272630
      pz      :     1.074581  p :     2.810330
      px      :     0.812701
      py      :     0.923048
      dz2     :     0.002596  d :     0.024280
      dxz     :     0.002598
      dyz     :     0.000686
      dx2y2   :     0.010509
      dxy     :     0.007891

  5 C s       :     3.269736  s :     3.269736
      pz      :     1.004371  p :     2.764807
      px      :     0.832376
      py      :     0.928060
      dz2     :     0.002598  d :     0.024449
      dxz     :     0.002756
      dyz     :     0.000664
      dx2y2   :     0.010497
      dxy     :     0.007933

  6 C s       :     3.256010  s :     3.256010
      pz      :     0.988517  p :     2.616444
      px      :     0.885139
      py      :     0.742787
      dz2     :     0.002792  d :     0.027579
      dxz     :     0.000975
      dyz     :     0.004282
      dx2y2   :     0.009310
      dxy     :     0.010220

  7 C s       :     3.277575  s :     3.277575
      pz      :     0.991120  p :     2.784773
      px      :     0.903599
      py      :     0.890054
      dz2     :     0.002599  d :     0.024450
      dxz     :     0.001266
      dyz     :     0.002269
      dx2y2   :     0.008560
      dxy     :     0.009756

  8 C s       :     3.275786  s :     3.275786
      pz      :     1.030009  p :     2.810674
      px      :     0.905526
      py      :     0.875139
      dz2     :     0.002581  d :     0.024244
      dxz     :     0.001166
      dyz     :     0.002064
      dx2y2   :     0.008707
      dxy     :     0.009726

  9 H s       :     0.731191  s :     0.731191
      pz      :     0.011170  p :     0.040731
      px      :     0.004548
      py      :     0.025012

 10 H s       :     0.863073  s :     0.863073
      pz      :     0.005063  p :     0.026270
      px      :     0.003652
      py      :     0.017555

 11 H s       :     0.869755  s :     0.869755
      pz      :     0.004861  p :     0.025622
      px      :     0.001711
      py      :     0.019050

 12 H s       :     0.869315  s :     0.869315
      pz      :     0.004527  p :     0.025584
      px      :     0.001880
      py      :     0.019177

 13 H s       :     0.844050  s :     0.844050
      pz      :     0.004955  p :     0.027002
      px      :     0.019806
      py      :     0.002242

 14 H s       :     0.866147  s :     0.866147
      pz      :     0.004473  p :     0.025548
      px      :     0.014907
      py      :     0.006168

 15 H s       :     0.869655  s :     0.869655
      pz      :     0.004665  p :     0.025558
      px      :     0.014750
      py      :     0.006143



                     *******************************
                     * LOEWDIN POPULATION ANALYSIS *
                     *******************************

----------------------
LOEWDIN ATOMIC CHARGES
----------------------
   0 N :   -0.245841
   1 C :    0.083291
   2 C :   -0.047435
   3 C :   -0.071982
   4 C :   -0.058639
   5 C :   -0.022720
   6 C :    0.087360
   7 C :   -0.022455
   8 C :   -0.047472
   9 H :    0.120574
  10 H :    0.039220
  11 H :    0.034619
  12 H :    0.036332
  13 H :    0.043503
  14 H :    0.037081
  15 H :    0.034564

-------------------------------
LOEWDIN REDUCED ORBITAL CHARGES
-------------------------------
  0 N s       :     3.277846  s :     3.277846
      pz      :     1.756306  p :     3.947193
      px      :     1.077212
      py      :     1.113675
      dz2     :     0.001135  d :     0.020802
      dxz     :     0.001874
      dyz     :     0.000694
      dx2y2   :     0.008643
      dxy     :     0.008456

  1 C s       :     3.116637  s :     3.116637
      pz      :     0.952681  p :     2.751537
      px      :     0.845015
      py      :     0.953841
      dz2     :     0.003461  d :     0.048534
      dxz     :     0.006964
      dyz     :     0.003692
      dx2y2   :     0.020933
      dxy     :     0.013484

  2 C s       :     3.089321  s :     3.089321
      pz      :     1.004616  p :     2.913744
      px      :     0.973384
      py      :     0.935743
      dz2     :     0.003251  d :     0.044370
      dxz     :     0.005056
      dyz     :     0.003030
      dx2y2   :     0.020785
      dxy     :     0.012249

  3 C s       :     3.028807  s :     3.028807
      pz      :     1.075777  p :     3.000212
      px      :     0.922809
      py      :     1.001627
      dz2     :     0.003284  d :     0.042963
      dxz     :     0.003660
      dyz     :     0.002171
      dx2y2   :     0.016740
      dxy     :     0.017109

  4 C s       :     3.032836  s :     3.032836
      pz      :     1.056553  p :     2.983334
      px      :     0.913797
      py      :     1.012984
      dz2     :     0.003273  d :     0.042469
      dxz     :     0.003975
      dyz     :     0.001255
      dx2y2   :     0.019278
      dxy     :     0.014688

  5 C s       :     3.036477  s :     3.036477
      pz      :     0.991925  p :     2.943768
      px      :     0.932572
      py      :     1.019271
      dz2     :     0.003238  d :     0.042475
      dxz     :     0.004228
      dyz     :     0.001251
      dx2y2   :     0.019052
      dxy     :     0.014707

  6 C s       :     3.054180  s :     3.054180
      pz      :     0.984058  p :     2.811686
      px      :     0.987574
      py      :     0.840054
      dz2     :     0.003447  d :     0.046774
      dxz     :     0.001818
      dyz     :     0.006827
      dx2y2   :     0.016145
      dxy     :     0.018537

  7 C s       :     3.038526  s :     3.038526
      pz      :     0.980463  p :     2.941830
      px      :     0.991789
      py      :     0.969578
      dz2     :     0.003174  d :     0.042099
      dxz     :     0.002168
      dyz     :     0.003617
      dx2y2   :     0.015497
      dxy     :     0.017643

  8 C s       :     3.035695  s :     3.035695
      pz      :     1.016798  p :     2.969833
      px      :     0.993576
      py      :     0.959458
      dz2     :     0.003165  d :     0.041945
      dxz     :     0.002001
      dyz     :     0.003290
      dx2y2   :     0.015790
      dxy     :     0.017699

  9 H s       :     0.770412  s :     0.770412
      pz      :     0.031161  p :     0.109014
      px      :     0.015585
      py      :     0.062269

 10 H s       :     0.884694  s :     0.884694
      pz      :     0.016516  p :     0.076086
      px      :     0.011952
      py      :     0.047618

 11 H s       :     0.890325  s :     0.890325
      pz      :     0.015996  p :     0.075056
      px      :     0.007438
      py      :     0.051621

 12 H s       :     0.889200  s :     0.889200
      pz      :     0.014686  p :     0.074467
      px      :     0.007872
      py      :     0.051909

 13 H s       :     0.879186  s :     0.879186
      pz      :     0.015304  p :     0.077311
      px      :     0.054755
      py      :     0.007252

 14 H s       :     0.888405  s :     0.888405
      pz      :     0.014440  p :     0.074514
      px      :     0.040927
      py      :     0.019146

 15 H s       :     0.890768  s :     0.890768
      pz      :     0.015151  p :     0.074668
      px      :     0.040531
      py      :     0.018986



                      *****************************
                      * MAYER POPULATION ANALYSIS *
                      *****************************

  NA   - Mulliken gross atomic population
  ZA   - Total nuclear charge
  QA   - Mulliken gross atomic charge
  VA   - Mayer's total valence
  BVA  - Mayer's bonded valence
  FA   - Mayer's free valence

  ATOM       NA         ZA         QA         VA         BVA        FA
  0 N      7.5432     7.0000    -0.5432     2.9288     2.9288     0.0000
  1 C      5.8469     6.0000     0.1531     3.6964     3.6964    -0.0000
  2 C      6.1153     6.0000    -0.1153     3.8049     3.8049    -0.0000
  3 C      6.1213     6.0000    -0.1213     3.8343     3.8343     0.0000
  4 C      6.1072     6.0000    -0.1072     3.8400     3.8400     0.0000
  5 C      6.0590     6.0000    -0.0590     3.8584     3.8584    -0.0000
  6 C      5.9000     6.0000     0.1000     3.7496     3.7496     0.0000
  7 C      6.0868     6.0000    -0.0868     3.8516     3.8516    -0.0000
  8 C      6.1107     6.0000    -0.1107     3.8549     3.8549    -0.0000
  9 H      0.7719     1.0000     0.2281     0.9413     0.9413     0.0000
 10 H      0.8893     1.0000     0.1107     0.9840     0.9840    -0.0000
 11 H      0.8954     1.0000     0.1046     0.9761     0.9761     0.0000
 12 H      0.8949     1.0000     0.1051     0.9772     0.9772     0.0000
 13 H      0.8711     1.0000     0.1289     0.9758     0.9758    -0.0000
 14 H      0.8917     1.0000     0.1083     0.9741     0.9741     0.0000
 15 H      0.8952     1.0000     0.1048     0.9746     0.9746    -0.0000

  Mayer bond orders larger than 0.100000
B(  0-N ,  1-C ) :   0.9467 B(  0-N ,  6-C ) :   0.9470 B(  0-N ,  9-H ) :   0.8908 
B(  1-C ,  2-C ) :   1.2835 B(  1-C ,  4-C ) :   1.2926 B(  2-C ,  3-C ) :   1.0870 
B(  2-C ,  5-C ) :   1.2965 B(  3-C ,  6-C ) :   1.7032 B(  3-C , 10-H ) :   0.9607 
B(  4-C ,  5-C ) :   0.1056 B(  4-C ,  7-C ) :   1.4198 B(  4-C , 11-H ) :   0.9572 
B(  5-C ,  8-C ) :   1.4370 B(  5-C , 12-H ) :   0.9570 B(  6-C , 13-H ) :   0.9484 
B(  7-C ,  8-C ) :   1.3409 B(  7-C , 14-H ) :   0.9557 B(  8-C , 15-H ) :   0.9563 


-------
TIMINGS
-------

Total SCF time: 0 days 0 hours 0 min 4 sec 

Total time                  ....       4.543 sec
Sum of individual times     ....       3.681 sec  ( 81.0%)

SCF preparation             ....       0.020 sec  (  0.4%)
Fock matrix formation       ....       3.640 sec  ( 80.1%)
  Startup                   ....       0.001 sec  (  0.0% of F)
  Coulomb+Exchange Fock     ....       4.493 sec  (123.4% of F)
Diagonalization             ....       0.000 sec  (  0.0%)
Density matrix formation    ....       0.002 sec  (  0.0%)
Total Energy calculation    ....       0.001 sec  (  0.0%)
Population analysis         ....       0.005 sec  (  0.1%)
Orbital Transformation      ....       0.003 sec  (  0.1%)
Orbital Orthonormalization  ....       0.000 sec  (  0.0%)
DIIS solution               ....       0.004 sec  (  0.1%)
SOSCF solution              ....       0.007 sec  (  0.2%)
Finished LeanSCF after   4.6 sec

Maximum memory used throughout the entire LEANSCF-calculation: 10.9 MB

-------------------------   --------------------
FINAL SINGLE POINT ENERGY      -360.350907976474
-------------------------   --------------------


------------------------------------------------------------------------------
                              ORCA PROPERTY CALCULATIONS
------------------------------------------------------------------------------

GBWName                                 ... indole.gbw
Number of atoms                         ...     16
Number of basis functions               ...    161
Max core memory                         ...   4096 MB

Electric properties:
Dipole moment                           ... YES
Quadrupole moment                       ...  NO
Static polarizability (Dipole/Dipole)   ...  NO
Static polarizability (Dipole/Quad.)    ...  NO
Static polarizability (Quad./Quad.)     ...  NO
Static polarizability (Velocity)        ...  NO
Static hyperpolarizability              ...  NO

Atomic electric properties:
Dipole moment                           ...  NO
Quadrupole moment                       ...  NO
Static polarizability                   ...  NO

Choice of electric origin               ... Center of mass
Position of electric origin             ...    31.183091   -21.069309     0.000000

General magnetic properties:
Magnetizability                         ...  NO

EPR properties:
g-Tensor (aka g-matrix)                 ...  NO
Zero-Field splitting spin-orbit         ...  NO
Zero-field splitting spin-spin          ...  NO
Hyperfine couplings                     ...  NO (   0 nuclei)
Quadrupole couplings                    ...  NO (   0 nuclei)
Contact density                         ...  NO (   0 nuclei)

NMR properties:
Chemical shifts                         ...  NO (   0 nuclei)
Spin-rotation constants                 ...  NO (   0 nuclei)
Spin-spin couplings                     ...  NO (   0 nuclei,    0 pairs)

Choice of magnetic origin               ... GIAO
Position of magnetic origin             ...     0.000000     0.000000     0.000000

Properties with geometric perturbations:
SCF Hessian                             ...  NO
IR spectrum                             ...  NO
VCD spectrum                            ...  NO
X-ray spectroscopy properties:
SCF XES/XAS/RIXS spectra                ...  NO

SCF SOC stabilization energy            ...  NO
Diagonal Born-Oppenheimer correction    ...  NO

-------------
DIPOLE MOMENT
-------------

Method             : SCF
Type of density    : Electron Density
Multiplicity       :   1
Irrep              :   0
Energy             :  -360.3509079764740477 Eh
Basis              : AO
                                X                 Y                 Z
Electronic contribution:      1.242197746      -0.295878556       0.000000000
Nuclear contribution   :     -0.943783276       0.152657422       0.000000000
                        -----------------------------------------
Total Dipole Moment    :      0.298414471      -0.143221134       0.000000000
                        -----------------------------------------
Magnitude (a.u.)       :      0.331003761
Magnitude (Debye)      :      0.841344697



--------------------
Rotational spectrum 
--------------------
 
Rotational constants in cm-1:             0.083865             0.033880             0.024132 
Rotational constants in MHz :          2514.208060          1015.709241           723.445946 

Dipole components along the rotational axes: 
x,y,z [a.u.] :    -0.301132    -0.137415     0.000000 
x,y,z [Debye]:    -0.765417    -0.349282     0.000000 

 

Dipole moment calculation done in   0.0 sec 

Maximum memory used throughout the entire PROP-calculation: 6.4 MB

--------------------------------
SUGGESTED CITATIONS FOR THIS RUN
--------------------------------

Below you find a list of papers that are relevant to this ORCA run
We neither can nor want to force you to cite these papers, but we appreciate if you do
You receive ORCA, which is the product of decades of hard work by many enthusiastic individuals, for free
The only thing we kindly ask in return is that you cite our papers,
We deeply appreciate it, if you show your appreciation for ORCA by not just citing the generic ORCA reference.

Please note that relegating all ORCA citations to the supporting information does *not* help us.
SI sections are not indexed - citations you put there will not count into any citation statistics
But we need these citations in order to attract the funding resources that allow us to do what we are doing

Therefore, if you are a happy ORCA user, please consider citing a few of the papers listed below in the main body of your paper

In addition to the list printed below, the program has created the file indole.bibtex that contains the list in bibtex format
You can import this file easily into all common literature databanks and citation aid programs


List of essential papers. We consider these as the minimum necessary citations

  1. Neese, F.
     Software update: the ORCA program system, version 6.0
     WIRES Comput. Molec. Sci. 2025 15(1), e70019
     doi.org/10.1002/wcms.7019

List of papers to cite with high priority. The work reported in these papers was absolutely
necessary for this run to complete.
Our perspective: the developers of density functionals and basis sets usually get cited in chemistry papers
Good! But without the algorithms to do something with them, the functionals or basis sets would not do anything.
Hence, in our opinion, the algorithm design and method developments papers are equally worthy of getting cited

  1. Neese, F.
     The SHARK Integral Generation and Digestion System
     J. Comp. Chem. 2022 44(3), 381
     doi.org/10.1002/jcc.26942

List of suggested additional citations. These are papers that are important in the 'surrounding' of 
of this run, or papers that preceded the highly important papers. If you like your results we are grateful for a citation.

  1. Neese, F.
     The ORCA program system
     WIRES Comput. Molec. Sci. 2012 2(1), 73-78
     doi.org/10.1002/wcms.81
  2. Neese, F.
     Software update: the ORCA program system, version 4.0
     WIRES Comput. Molec. Sci. 2018 8(1), 1-6
     doi.org/10.1002/wcms.1327
  3. Neese, F.; Wennmohs, F.; Becker, U.; Riplinger, C.
     The ORCA quantum chemistry program package
     J. Chem. Phys. 2020 152(22), 224108
     doi.org/10.1063/5.0004608
  4. Neese, F.
     Software update: The ORCA program system—Version 5.0
     WIRES Comput. Molec. Sci. 2022 12(1), e1606
     doi.org/10.1002/wcms.1606

List of optional additional citations

  1. Neese, F.
     Approximate second-order SCF convergence for spin unrestricted wavefunctions
     Chem. Phys. Lett. 2000 325(1-3), 93-98
     doi.org/10.1016/s0009-2614(00)00662-x

Timings for individual modules:

Sum of individual times          ...        5.489 sec (=   0.091 min)
Startup calculation              ...        0.675 sec (=   0.011 min)  12.3 %
SCF iterations                   ...        4.720 sec (=   0.079 min)  86.0 %
Property calculations            ...        0.094 sec (=   0.002 min)   1.7 %
                             ****ORCA TERMINATED NORMALLY****
TOTAL RUN TIME: 0 days 0 hours 0 minutes 5 seconds 649 msec
