
                                 *****************
                                 * O   R   C   A *
                                 *****************

                                            #,                                       
                                            ###                                      
                                            ####                                     
                                            #####                                    
                                            ######                                   
                                           ########,                                 
                                     ,,################,,,,,                         
                               ,,#################################,,                 
                          ,,##########################################,,             
                       ,#########################################, ''#####,          
                    ,#############################################,,   '####,        
                  ,##################################################,,,,####,       
                ,###########''''           ''''###############################       
              ,#####''   ,,,,##########,,,,          '''####'''          '####       
            ,##' ,,,,###########################,,,                        '##       
           ' ,,###''''                  '''############,,,                           
         ,,##''                                '''############,,,,        ,,,,,,###''
      ,#''                                            '''#######################'''  
     '                                                          ''''####''''         
             ,#######,   #######,   ,#######,      ##                                
            ,#'     '#,  ##    ##  ,#'     '#,    #''#        ,####,    ,#,          
            ##       ##  ##   ,#'  ##            #'  '#       #'       ,# #          
            ##       ##  #######   ##           ,######,      #####,      #          
            '#,     ,#'  ##    ##  '#,     ,#' ,#      #,     #,   #      #          
             '#######'   ##     ##  '#######'  #'      '#     '####' #    #          



                #########################################################
                #                        -***-                          #
                #          Department of theory and spectroscopy        #
                #                                                       #
                #                      Frank Neese                      #
                #                                                       #
                #     Directorship, Architecture, Infrastructure        #
                #                    SHARK, DRIVERS                     #
                #        Core code/Algorithms in most modules           #
                #                                                       #
                #        Max Planck Institute fuer Kohlenforschung      #
                #                Kaiser Wilhelm Platz 1                 #
                #                 D-45470 Muelheim/Ruhr                 #
                #                      Germany                          #
                #                                                       #
                #                  All rights reserved                  #
                #                        -***-                          #
                #########################################################


                         Program Version 6.1.0  -  RELEASE   -
                                (GIT: $679e74b7b5$)
                          ($2025-06-10 18:02:51 +0200$)


 With contributions from (in alphabetic order):
[Max-Planck-Institut fuer Kohlenforschung]                               
  Daniel Aravena         : Magnetic Suceptibility                        
  Michael Atanasov       : Ab Initio Ligand Field Theory (pilot matlab implementation)
  Alexander A. Auer      : GIAO ZORA, VPT2 properties, NMR spectrum      
  Ute Becker             : All parallelization in ORCA, NUMFREQ, NUMCALC 
  Giovanni Bistoni       : ED, misc. LED, open-shell LED, HFLD           
  Dmytro Bykov           : pre 5.0 version of the SCF Hessian            
  Marcos Casanova-Páez   : Triplet and SCS-CIS(D). UHF-(DLPNO)-IP/EA/STEOM-CCSD. UHF-CVS-IP/STEOM-CCSD   
  Vijay G. Chilkuri      : MRCI spin determinant printing, contributions to CSF-ICE 
  Pauline Colinet        : FMM embedding                                 
  Dipayan Datta          : RHF DLPNO-CCSD density                        
  Achintya Kumar Dutta   : EOM-CC, STEOM-CC                              
  Nicolas Foglia         : Exact transition moments, OPA infrastructure, MCD improvements    
  Dmitry Ganyushin       : Spin-Orbit,Spin-Spin,Magnetic field MRCI      
  Miquel Garcia-Rates    : C-PCM and meta-GGA Hessian, CCSD/C-PCM, Gaussian charge scheme 
  Tiago L. C. Gouveia    : GS-ROHF, GS-ROCIS                             
  Yang Guo               : DLPNO-NEVPT2, F12-NEVPT2, CIM, IAO-localization        
  Andreas Hansen         : Spin unrestricted coupled pair/coupled cluster methods 
  Ingolf Harden          : AUTO-CI MPn and infrastructure                
  Benjamin Helmich-Paris : MC-RPA, TRAH-(SCF,CASSCF), AVAS, COSX integrals, SCF dyn. polar., MC-PDFT, srDFT 
  Lee Huntington         : MR-EOM, pCC                                   
  Robert Izsak           : Overlap fitted RIJCOSX, COSX-SCS-MP3, EOM     
  Riya Kayal             : Wick's Theorem for AUTO-CI, AUTO-CI UHF-CCSDT 
  Emily Kempfer          : AUTO-CI RHF CISDT and CCSDT, approximate NEVPT4
  Christian Kollmar      : KDIIS, OOCD, Brueckner-CCSD(T), CCSD density, CASPT2, CASPT2-K, improved NEVPT2 
  Axel Koslowski         : Symmetry handling                             
  Simone Kossmann        : meta-GGA functionals, TD-DFT gradient, OOMP2, (MP2 Hessian; deprecated post 5.0) 
  Lucas Lang             : DCDCAS, Hyperfine gauge corrections, ICE-SOC+SSC
  Marvin Lechner         : AUTO-CI (C++ implementation), FIC-MRCC        
  Spencer Leger          : CASSCF response                               
  Dagmar Lenk            : GEPOL surface, SMD, ORCA-2-JSON               
  Dimitrios Liakos       : Extrapolation schemes; Compound Job, Property file
  Dimitrios Manganas     : Further ROCIS development; embedding schemes. LFT, Crystal Embedding 
  Dimitrios Pantazis     : SARC Basis sets                               
  Anastasios Papadopoulos: AUTO-CI, single reference methods and gradients 
  Taras Petrenko         : pre 6.0 DFT Hessian and TD-DFT gradient,  ECA, NRVS 
  Petra Pikulova         : Analytic Raman intensities                    
  Peter Pinski           : DLPNO-MP2, DLPNO-MP2 Gradient                 
  Shashank Vittal Rao    : ES-AILFT, MagRelax                            
  Christoph Reimann      : Effective Core Potentials                     
  Marius Retegan         : Local ZFS, SOC                                
  Christoph Riplinger    : Optimizer, TS searches, QM/MM, DLPNO-CCSD(T), (RO)-DLPNO pert. Triples 
  Michael Roemelt        : Original ROCIS implementation, recursive CI coupling coefficients
  Masaaki Saitow         : Open-shell DLPNO-CCSD energy and density      
  Barbara Sandhoefer     : DKH picture change effects                    
  Yorick L. A. Schmerwitz: GMF and freeze-and-release deltaSCF, NEB S-IDPP initial path                    
  Kantharuban Sivalingam : CASSCF convergence/infrastructure, NEVPT2, NEVPT3, NEVPT4(SD), FIC-MRCI and CEPA variants
  Bernardo de Souza      : ESD, SOC TD-DFT                               
  Georgi L. Stoychev     : AutoAux, RI-MP2 NMR, DLPNO-MP2 response, X2C  
  Van Anh Tran           : RI-MP2 g-tensors                              
  Willem Van den Heuvel  : Paramagnetic NMR                              
  Zikuan Wang            : NOTCH, Electric field optimization            
  Frank Wennmohs         : Technical directorship and infrastructure     
  Hang Xu                : AUTO-CI-Response properties                   
                                                                         
[FACCTs GmbH]                                                            
  Markus Bursch, Nicolas Foglia, Miquel Garcia-Rates, Ingolf Harden, Hagen Neugebauer, Anastasios Papadopoulos, 
  Christoph Riplinger, Bernardo de Souza, Georgi L. Stoychev                                                    
                                                                 
  APM, various basis sets, CI-OPT, improved COSX, DLPNO-Multilevel,           
  DOCKER, DRACO, updates on ESD, Fragmentator, GOAT, IRC, LR-CPCM, L-BFGS, MBIS, meta-GGA TD-DFT gradient, ML-optimized integration grids, 
  MM, NACMEs, nearIR, NEB, NEB-TS, NL-DFT gradient (VV10), 2- and 3-layer-ONIOM, interface openCOSMO-RS, QMMM,   
  Crystal-QMMM, RESP, rigid body optimization, SF, symmetry and pop. for TD-DFT, various functionals, SOLVATOR                                   
                                                                         
[Other institutions]                                                     
  V. Asgeirsson          : NEB                                           
  Christoph Bannwarth    : sTDA-DFT, sTD-DFT, PBEh-3c, B97-3c, D3        
  Giovanni Bistoni       : ETS/NOCV, ADLD/ADEX, COVALED                  
  Martin Brehm           : Molecular dynamics                            
  Ronald Cardenas        : ETS/NOCV                                      
  Martina Colucci        : COVALED                                       
  Sebastian Ehlert       : rSCAN, r2SCAN, r2SCAN-3c, D4, dhf basis sets  
  Marvin Friede          : D4 for Fr, Ra, Ac-Lr                          
  Lars Goerigk           : TD-DFT with DH, B97 family of functionals     
  Stefan Grimme          : VdW corrections, initial TS optimization, DFT functionals, gCP, sTDA/sTD-DF 
  Waldemar Hujo          : DFT-NL                                        
  H. Jonsson             : NEB                                           
  Holger Kruse           : gCP                                           
  Marcel Mueller         : wB97X-3c, vDZP basis set                      
  Hagen Neugebauer       : wr2SCAN, Native XTB                           
  Gianluca Regni         : ADLD/ADEX                                     
  Tobias Risthaus        : pre 6.0 range-separated hybrid DFT and stability analysis
  Lukas Wittmann         : regularized MP2, r2SCAN double-hybrids, wr2SCAN        
                                                                         
We gratefully acknowledge several colleagues who have allowed us to      
interface, adapt or use parts of their codes:                            
  Ed Valeev, F. Pavosevic, A. Kumar             : LibInt (2-el integral package), F12 methods 
  Garnet Chan, S. Sharma, J. Yang, R. Olivares  : DMRG                   
  Ulf Ekstrom                                   : XCFun DFT Library      
  Mihaly Kallay                                 : mrcc  (arbitrary order and MRCC methods)
  Frank Weinhold                                : gennbo (NPA and NBO analysis)           
  Simon Mueller                                 : openCOSMO-RS                            
  Christopher J. Cramer and Donald G. Truhlar   : smd solvation model                     
  S Lehtola, MJT Oliveira, MAL Marques          : LibXC Library                           
  Liviu Ungur et al                             : ANISO software                          


 Your calculation uses the libint2 library for the computation of 2-el integrals
 For citations please refer to: http://libint.valeyev.net

 Your ORCA version has been built with support for libXC version: 7.0.0
 For citations please refer to: https://libxc.gitlab.io

 This ORCA versions uses:
   CBLAS   interface :  Fast vector & matrix operations
   LAPACKE interface :  Fast linear algebra routines
   SCALAPACK package :  Parallel linear algebra routines
   Shared memory     :  Shared parallel matrices


  ***********************************
  * Starting time: Sun Aug 31 14:02:51 2025
  * Host name:     Mac
  * Process ID:    44067
  * Working dir.:  /Users/tommasocolombo/Desktop/ORCA calculations
  ***********************************

Warning: RI is on but no J-basis has been assigned. Assigning Def2/J (nothing to worry about!)
================================================================================

----- Orbital basis set information -----
Your calculation utilizes the basis: SV(P) 

----- AuxJ basis set information -----
Your calculation utilizes the auxiliary basis: def2/J
   H-Rn: F. Weigend, Phys. Chem. Chem. Phys. 8, 1057 (2006).
   Fr-Lr: K. Eichkorn, F. Weigend, O. Treutler, R. Ahlrichs; Theor. Chem. Acc. 97, 119 (1997).

================================================================================
                                        WARNINGS
                       Please study these warnings very carefully!
================================================================================


WARNING: Geometry Optimization
  ===> : Switching off AutoStart
         For restart on a previous wavefunction, please use MOREAD

================================================================================
                                       INPUT FILE
================================================================================
NAME = MO.inp
|  1> ! B3LYP/G SV(P) Opt
|  2> * int 0 1
|  3>     C  0 0 0 0.0000   0.000    0.00
|  4>     O  1 0 0 1.2029   0.000    0.00
|  5>     H  1 2 0 1.1075 122.016    0.00
|  6>     H  1 2 3 1.1075 122.016  180.00
|  7> **                         ****END OF INPUT****
================================================================================

                       *****************************
                       * Geometry Optimization Run *
                       *****************************

Geometry optimization settings:
Update method            Update   .... BFGS
Choice of coordinates    CoordSys .... (2022) Redundant Internals
Initial Hessian          InHess   .... Almloef's Model
Max. no of cycles        MaxIter  .... 50

Convergence Tolerances:
Energy Change            TolE     ....  5.0000e-06 Eh
Max. Gradient            TolMAXG  ....  3.0000e-04 Eh/bohr
RMS Gradient             TolRMSG  ....  1.0000e-04 Eh/bohr
Max. Displacement        TolMAXD  ....  4.0000e-03 bohr
RMS Displacement         TolRMSD  ....  2.0000e-03 bohr
Strict Convergence                .... False

------------------------------------------------------------------------------
                        ORCA OPTIMIZATION COORDINATE SETUP
------------------------------------------------------------------------------

The optimization will be done in redundant internal coordinates (2022)
Making redundant internal coordinates   ...  (2022 redundants) done
Evaluating the initial hessian          ...  (Almloef) done
Evaluating the coordinates              ...  done
Calculating the B-matrix                .... done
Calculating the G-matrix                .... done
The number of degrees of freedom        ....    7

    -----------------------------------------------------------------
                    Redundant Internal Coordinates


    -----------------------------------------------------------------
         Definition                    Initial Value    Approx d2E/dq
    -----------------------------------------------------------------
      1. B(O   1,C   0)                  1.2029         1.112709   
      2. B(H   2,C   0)                  1.1075         0.337678   
      3. B(H   3,C   0)                  1.1075         0.337678   
      4. A(O   1,C   0,H   3)          122.0160         0.383465   
      5. A(H   2,C   0,H   3)          115.9680         0.285050   
      6. A(O   1,C   0,H   2)          122.0160         0.383465   
      7. I(O   1,H   3,H   2,C   0)      0.0000         0.113050   
    -----------------------------------------------------------------

Number of atoms                         .... 4
Number of degrees of freedom            .... 7


         *************************************************************
         *                GEOMETRY OPTIMIZATION CYCLE   1            *
         *************************************************************
---------------------------------
CARTESIAN COORDINATES (ANGSTROEM)
---------------------------------
  C      0.000000    0.000000    0.000000
  O      1.202900    0.000000    0.000000
  H     -0.587148    0.939049    0.000000
  H     -0.587148   -0.939049   -0.000000

----------------------------
CARTESIAN COORDINATES (A.U.)
----------------------------
  NO LB      ZA    FRAG     MASS         X           Y           Z
   0 C     6.0000    0    12.011    0.000000    0.000000    0.000000
   1 O     8.0000    0    15.999    2.273152    0.000000    0.000000
   2 H     1.0000    0     1.008   -1.109549    1.774546    0.000000
   3 H     1.0000    0     1.008   -1.109549   -1.774546   -0.000000

--------------------------------
INTERNAL COORDINATES (ANGSTROEM)
--------------------------------
 C      0   0   0     0.000000000000     0.00000000     0.00000000
 O      1   0   0     1.202900000000     0.00000000     0.00000000
 H      1   2   0     1.107500000000   122.01600000     0.00000000
 H      1   2   3     1.107500000000   122.01600000   180.00000000

---------------------------
INTERNAL COORDINATES (A.U.)
---------------------------
 C      0   0   0     0.000000000000     0.00000000     0.00000000
 O      1   0   0     2.273151566494     0.00000000     0.00000000
 H      1   2   0     2.092871693318   122.01600000     0.00000000
 H      1   2   3     2.092871693318   122.01600000   180.00000000

---------------------
BASIS SET INFORMATION
---------------------
There are 3 groups of distinct atoms

 Group   1 Type C   : 7s4p1d contracted to 3s2p1d pattern {511/31/1}
 Group   2 Type O   : 7s4p1d contracted to 3s2p1d pattern {511/31/1}
 Group   3 Type H   : 4s contracted to 2s pattern {31}

Atom   0C    basis set group =>   1
Atom   1O    basis set group =>   2
Atom   2H    basis set group =>   3
Atom   3H    basis set group =>   3
---------------------------------
AUXILIARY/J BASIS SET INFORMATION
---------------------------------
There are 3 groups of distinct atoms

 Group   1 Type C   : 12s5p4d2f1g contracted to 6s4p3d1f1g pattern {711111/2111/211/2/1}
 Group   2 Type O   : 12s5p4d2f1g contracted to 6s4p3d1f1g pattern {711111/2111/211/2/1}
 Group   3 Type H   : 5s2p1d contracted to 3s1p1d pattern {311/2/1}

Atom   0C    basis set group =>   1
Atom   1O    basis set group =>   2
Atom   2H    basis set group =>   3
Atom   3H    basis set group =>   3
------------------------------------------------------------------------------
                             ORCA STARTUP CALCULATIONS
                           -- RI-GTO INTEGRALS CHOSEN --
------------------------------------------------------------------------------
------------------------------------------------------------------------------
                   ___                                                        
                  /   \      - P O W E R E D   B Y -                         
                 /     \                                                     
                 |  |  |   _    _      __       _____    __    __             
                 |  |  |  | |  | |    /  \     |  _  \  |  |  /  |          
                  \  \/   | |  | |   /    \    | | | |  |  | /  /          
                 / \  \   | |__| |  /  /\  \   | |_| |  |  |/  /          
                |  |  |   |  __  | /  /__\  \  |    /   |      \           
                |  |  |   | |  | | |   __   |  |    \   |  |\   \          
                \     /   | |  | | |  |  |  |  | |\  \  |  | \   \       
                 \___/    |_|  |_| |__|  |__|  |_| \__\ |__|  \__/        
                                                                              
                      - O R C A' S   B I G   F R I E N D -                    
                                      &                                       
                       - I N T E G R A L  F E E D E R -                       
                                                                              
 v1 FN, 2020, v2 2021, v3 2022-2024                                           
------------------------------------------------------------------------------


----------------------
SHARK INTEGRAL PACKAGE
----------------------

Number of atoms                             ...      4
Number of basis functions                   ...     32
Number of shells                            ...     16
Maximum angular momentum                    ...      2
Integral batch strategy                     ... SHARK/LIBINT Hybrid
RI-J (if used) integral strategy            ... SPLIT-RIJ (Revised 2003 algorithm where possible)
Printlevel                                  ...      1
Contraction scheme used                     ... SEGMENTED contraction
Prescreening option                         ... SCHWARTZ
   Thresh                                   ... 2.500e-11
   Tcut                                     ... 2.500e-12
   Tpresel                                  ... 2.500e-12 
Coulomb Range Separation                    ... NOT USED
Exchange Range Separation                   ... NOT USED
Multipole approximations                    ... NOT USED
Finite Nucleus Model                        ... NOT USED
CABS basis                                  ... NOT available
Auxiliary Coulomb fitting basis             ... AVAILABLE
   # of basis functions in Aux-J            ...    120
   # of shells in Aux-J                     ...     40
   Maximum angular momentum in Aux-J        ...      4
Auxiliary J/K fitting basis                 ... NOT available
Auxiliary Correlation fitting basis         ... NOT available
Auxiliary 'external' fitting basis          ... NOT available

Checking pre-screening integrals            ... done (  0.0 sec) Dimension = 16
   => SHARK Basis and OBASIS are compatible. Storing Pre-screening
Shell pair information
Shell pair cut-off parameter TPreSel        ...   2.5e-12
Total number of shell pairs                 ...       136
Shell pairs after pre-screening             ...       136
Total number of primitive shell pairs       ...       560
Primitive shell pairs kept                  ...       510
          la=0 lb=0:     55 shell pairs
          la=1 lb=0:     40 shell pairs
          la=1 lb=1:     10 shell pairs
          la=2 lb=0:     20 shell pairs
          la=2 lb=1:      8 shell pairs
          la=2 lb=2:      3 shell pairs

Checking whether 4 symmetric matrices of dimension 32 fit in memory
:Max Core in MB      =   4096.00
 MB in use           =      3.30
 MB left             =   4092.70
 MB needed           =      0.02
 Data fit in memory  = YES
Calculating RI/J V-Matrix + Cholesky decomp.... done (  0.0 sec)
Calculating Nuclear repulsion               ... done (  0.0 sec) ENN=     31.320154411946 Eh

Diagonalization of the overlap matrix:
Smallest eigenvalue                        ... 1.970e-02
Time for diagonalization                   ...    0.002 sec
Threshold for overlap eigenvalues          ... 1.000e-07
Number of eigenvalues below threshold      ... 0
Time for construction of square roots      ...    0.000 sec
Total time needed                          ...    0.003 sec

-------------------
DFT GRID GENERATION
-------------------

General Integration Accuracy     IntAcc      ... 4.388
Radial Grid Type                 RadialGrid  ... OptM3 with GC (2021)
Angular Grid (max. ang.)         AngularGrid ... 4 (Lebedev-302)
Angular grid pruning method      GridPruning ... 4 (adaptive)
Weight generation scheme         WeightScheme... mBecke (2022)
Basis function cutoff            BFCut       ... 1.0000e-11
Integration weight cutoff        WCut        ... 1.0000e-14
Partially contracted basis set               ... off
Rotationally invariant grid construction     ... off
Angular grids for H and He will be reduced by one unit

Total number of grid points                  ...    18835
Total number of batches                      ...      297
Average number of points per batch           ...       63
Average number of grid points per atom       ...     4709

--------------------
COSX GRID GENERATION
--------------------

GRIDX 1
-------
General Integration Accuracy     IntAcc      ... 3.816
Radial Grid Type                 RadialGrid  ... OptM3 with GC (2021)
Angular Grid (max. ang.)         AngularGrid ... 1 (Lebedev-50)
Angular grid pruning method      GridPruning ... 4 (adaptive)
Weight generation scheme         WeightScheme... mBecke (2022)
Basis function cutoff            BFCut       ... 1.0000e-11
Integration weight cutoff        WCut        ... 1.0000e-14
Partially contracted basis set               ... on
Rotationally invariant grid construction     ... off
Angular grids for H and He will be reduced by one unit

Total number of grid points                  ...     2416
Total number of batches                      ...       22
Average number of points per batch           ...      109
Average number of grid points per atom       ...      604
UseSFitting                                  ... on

GRIDX 2
-------
General Integration Accuracy     IntAcc      ... 4.020
Radial Grid Type                 RadialGrid  ... OptM3 with GC (2021)
Angular Grid (max. ang.)         AngularGrid ... 2 (Lebedev-110)
Angular grid pruning method      GridPruning ... 4 (adaptive)
Weight generation scheme         WeightScheme... mBecke (2022)
Basis function cutoff            BFCut       ... 1.0000e-11
Integration weight cutoff        WCut        ... 1.0000e-14
Partially contracted basis set               ... on
Rotationally invariant grid construction     ... off
Angular grids for H and He will be reduced by one unit

Total number of grid points                  ...     5362
Total number of batches                      ...       44
Average number of points per batch           ...      121
Average number of grid points per atom       ...     1340
UseSFitting                                  ... on

GRIDX 3
-------
General Integration Accuracy     IntAcc      ... 4.338
Radial Grid Type                 RadialGrid  ... OptM3 with GC (2021)
Angular Grid (max. ang.)         AngularGrid ... 3 (Lebedev-194)
Angular grid pruning method      GridPruning ... 4 (adaptive)
Weight generation scheme         WeightScheme... mBecke (2022)
Basis function cutoff            BFCut       ... 1.0000e-11
Integration weight cutoff        WCut        ... 1.0000e-14
Partially contracted basis set               ... on
Rotationally invariant grid construction     ... off
Angular grids for H and He will be reduced by one unit

Total number of grid points                  ...    11891
Total number of batches                      ...       94
Average number of points per batch           ...      126
Average number of grid points per atom       ...     2973
UseSFitting                                  ... on
Grids setup in   0.1 sec
Initializing property integral containers    ... done (  0.0 sec)

SHARK setup successfully completed in   0.1 seconds

Maximum memory used throughout the entire STARTUP-calculation: 9.3 MB
-------------------------------------------------------------------------------
                                 ORCA GUESS
                   Start orbitals & Density for SCF / CASSCF
-------------------------------------------------------------------------------

------------
SCF SETTINGS
------------
Hamiltonian:
 Density Functional     Method          .... DFT(GTOs)
 Exchange Functional    Exchange        .... B88
   X-Alpha parameter    XAlpha          ....  0.666667
   Becke's b parameter  XBeta           ....  0.004200
 Correlation Functional Correlation     .... LYP
 LDA part of GGA corr.  LDAOpt          .... VWN-3
 Gradients option       PostSCFGGA      .... off
 Hybrid DFT is turned on
   Fraction HF Exchange ScalHFX         ....  0.200000
   Scaling of DF-GGA-X  ScalDFX         ....  0.720000
   Scaling of DF-GGA-C  ScalDFC         ....  0.810000
   Scaling of DF-LDA-C  ScalLDAC        ....  1.000000
   Perturbative correction              ....  0.000000
   NL short-range parameter             ....  4.800000
 RI-approximation to the Coulomb term is turned on
   Number of AuxJ basis functions       .... 120
   RIJ-COSX (HFX calculated with COS-X)).... on


General Settings:
 Integral files         IntName         .... MO
 Hartree-Fock type      HFTyp           .... RHF
 Total Charge           Charge          ....    0
 Multiplicity           Mult            ....    1
 Number of Electrons    NEL             ....   16
 Basis Dimension        Dim             ....   32
 Nuclear Repulsion      ENuc            ....     31.3201544119 Eh

Convergence Acceleration:
 AO-DIIS                CNVDIIS         .... on
   Start iteration      DIISMaxIt       ....    12
   Startup error        DIISStart       ....  0.200000
   # of expansion vecs  DIISMaxEq       ....     5
   Bias factor          DIISBfac        ....   1.050
   Max. coefficient     DIISMaxC        ....  10.000
 MO-DIIS                CNVKDIIS        .... off
 Trust-Rad. Augm. Hess. CNVTRAH         .... auto
   Auto Start mean grad. ratio tolernc. ....  1.125000
   Auto Start start iteration           ....    50
   Auto Start num. interpolation iter.  ....    10
   Max. Number of Micro iterations      ....    24
   Max. Number of Macro iterations      .... Maxiter - #DIIS iter
   Number of Davidson start vectors     ....     2
   Converg. threshold    (grad. norm)   ....   1.000e-05
   Grad. Scal. Fac. for Micro threshold ....   0.100
   Minimum threshold for Micro iter.    ....   1.000e-02
   NR start threshold (gradient norm)   ....   1.000e-04
   Initial trust radius                 ....   0.400
   Minimum AH scaling param. (alpha)    ....   1.000
   Maximum AH scaling param. (alpha)    .... 1000.000
   Quad. conv. algorithm                .... NR
   White noise on init. David. guess    .... on
   Maximum white noise                  ....   0.010
   Pseudo random numbers                .... off
   Inactive MOs                         .... canonical
   Orbital update algorithm             .... Taylor
   Preconditioner                       .... Diag
   Full preconditioner red. dimension   ....   250
 SOSCF                 CNVSOSCF           .... on
   Start iteration     SOSCFMaxIt         ....   150
   Startup grad/error  SOSCFStart         ....  0.003300
   Hessian update      SOSCFHessUp        .... L-BFGS
   Autom. constraints  SOSCFAutoConstrain .... off
 Level Shifting         CNVShift        .... on
   Level shift para.    LevelShift      ....    0.2500
   Turn off err/grad.   ShiftErr        ....    0.0010
 Zerner damping         CNVZerner       .... off
 Static damping         CNVDamp         .... on
   Fraction old density DampFac         ....    0.7000
   Max. Damping (<1)    DampMax         ....    0.9800
   Min. Damping (>=0)   DampMin         ....    0.0000
   Turn off err/grad.   DampErr         ....    0.1000

SCF Procedure:
 Maximum # iterations   MaxIter         ....   125
 SCF integral mode      SCFMode         .... Direct
   Integral package                     .... SHARK and LIBINT hybrid scheme
 Reset frequency        DirectResetFreq ....    20
 Integral Threshold     Thresh          ....  2.500e-11 Eh
 Primitive CutOff       TCut            ....  2.500e-12 Eh

Convergence Tolerance:
 Convergence Check Mode ConvCheckMode   .... Total+1el-Energy
 Convergence forced     ConvForced      .... 0
 Energy Change          TolE            ....  1.000e-08 Eh
 1-El. energy change                    ....  1.000e-05 Eh
 Orbital Gradient       TolG            ....  1.000e-05
 Orbital Rotation angle TolX            ....  1.000e-05
 DIIS Error             TolErr          ....  5.000e-07

------------------------------
INITIAL GUESS: MODEL POTENTIAL
------------------------------
Loading Hartree-Fock densities                     ... done
Calculating cut-offs                               ... done
Initializing the effective Hamiltonian             ... done
Setting up the integral package (SHARK)            ... done
Starting the Coulomb interaction                   ... done (   0.0 sec)
Making the grid                                    ... done (   0.0 sec)
Mapping shells                                     ... done
Starting the XC term evaluation                    ... done (   0.0 sec)
  promolecular density results
     # of electrons  =     15.999123207
     EX              =    -13.883564154
     EC              =     -0.536281690
     EX+EC           =    -14.419845843
Transforming the Hamiltonian                       ... done (   0.0 sec)
Diagonalizing the Hamiltonian                      ... done (   0.0 sec)
Back transforming the eigenvectors                 ... done (   0.0 sec)
Now organizing SCF variables                       ... done
                      ------------------
                      INITIAL GUESS DONE (   0.0 sec)
                      ------------------
             **** ENERGY FILE WAS UPDATED (MO.en.tmp) ****
Finished Guess after   0.0 sec
Maximum memory used throughout the entire GUESS-calculation: 5.6 MB

-------------------------------------------------------------------------------------------
                                      ORCA LEAN-SCF
                              memory conserving SCF solver
-------------------------------------------------------------------------------------------

----------------------------------------D-I-I-S--------------------------------------------
Iteration    Energy (Eh)           Delta-E    RMSDP     MaxDP     DIISErr   Damp  Time(sec)
-------------------------------------------------------------------------------------------
               ***  Starting incremental Fock matrix formation  ***
    1    -114.3351538959125264     0.00e+00  1.05e-02  9.52e-02  2.69e-01  0.700   0.1
    2    -114.3744314145714611    -3.93e-02  6.04e-03  5.61e-02  1.03e-01  0.700   0.0
                               ***Turning on AO-DIIS***
    3    -114.3847761516747710    -1.03e-02  2.21e-03  1.71e-02  3.21e-02  0.700   0.0
    4    -114.3922893256206805    -7.51e-03  3.24e-03  2.67e-02  1.94e-02  0.000   0.0
    5    -114.4111023417890749    -1.88e-02  1.18e-03  7.51e-03  1.25e-02  0.000   0.0
                              *** Initializing SOSCF ***
---------------------------------------S-O-S-C-F--------------------------------------
Iteration    Energy (Eh)           Delta-E    RMSDP     MaxDP     MaxGrad    Time(sec)
--------------------------------------------------------------------------------------
    6    -114.4112880125859135    -1.86e-04  3.54e-04  2.62e-03  2.69e-03     0.0
               *** Restarting incremental Fock matrix formation ***
    7    -114.4113096391699287    -2.16e-05  2.29e-04  1.64e-03  3.73e-04     0.1
    8    -114.4113104580184483    -8.19e-07  5.78e-05  4.67e-04  3.05e-04     0.1
    9    -114.4113107358155617    -2.78e-07  5.51e-05  4.30e-04  1.84e-04     0.1
   10    -114.4113108751388097    -1.39e-07  2.28e-05  2.51e-04  1.13e-04     0.1
   11    -114.4113109596607103    -8.45e-08  7.50e-06  5.07e-05  3.18e-05     0.1
   12    -114.4113109624153708    -2.75e-09  1.78e-06  1.28e-05  5.61e-06     0.1
                 **** Energy Check signals convergence ****

               *****************************************************
               *                     SUCCESS                       *
               *           SCF CONVERGED AFTER  12 CYCLES          *
               *****************************************************

Recomputing exchange energy using gridx3       ... done (    0.068 sec)
Old exchange energy                            :     -2.810381100 Eh
New exchange energy                            :     -2.810353129 Eh
Exchange energy change after final integration :      0.000027971 Eh
Total energy after final integration           :   -114.411282991 Eh
             **** ENERGY FILE WAS UPDATED (MO.en.tmp) ****

----------------
TOTAL SCF ENERGY
----------------

Total Energy       :       -114.41128299143121 Eh           -3113.28929 eV

Components:
Nuclear Repulsion  :         31.32015441194602 Eh             852.26473 eV
Electronic Energy  :       -145.73146537482825 Eh           -3965.55478 eV
One Electron Energy:       -217.43163383935070 Eh           -5916.61555 eV
Two Electron Energy:         71.70016846452246 Eh            1951.06077 eV

Virial components:
Potential Energy   :       -227.95757121299789 Eh           -6203.04087 eV
Kinetic Energy     :        113.54628822156668 Eh            3089.75158 eV
Virial Ratio       :          2.00761799248053

DFT components:
N(Alpha)           :        7.999999390334 electrons
N(Beta)            :        7.999999390334 electrons
N(Total)           :       15.999998780668 electrons
E(X)               :      -11.192489358137 Eh       
E(C)               :       -0.697784853970 Eh       
E(XC)              :      -11.890274212107 Eh       

---------------
SCF CONVERGENCE
---------------

  Last Energy change         ...    2.7547e-09  Tolerance :   1.0000e-08
  Last MAX-Density change    ...    1.2782e-05  Tolerance :   1.0000e-07
  Last RMS-Density change    ...    1.7799e-06  Tolerance :   5.0000e-09
  Last DIIS Error            ...    2.6918e-03  Tolerance :   5.0000e-07
  Last Orbital Gradient      ...    5.6061e-06  Tolerance :   1.0000e-05
  Last Orbital Rotation      ...    5.8160e-06  Tolerance :   1.0000e-05


----------------
ORBITAL ENERGIES
----------------

  NO   OCC          E(Eh)            E(eV) 
   0   2.0000     -19.152299      -521.1606 
   1   2.0000     -10.281750      -279.7806 
   2   2.0000      -1.051129       -28.6027 
   3   2.0000      -0.630606       -17.1597 
   4   2.0000      -0.500009       -13.6059 
   5   2.0000      -0.450846       -12.2681 
   6   2.0000      -0.404739       -11.0135 
   7   2.0000      -0.271481        -7.3874 
   8   0.0000      -0.045952        -1.2504 
   9   0.0000       0.069176         1.8824 
  10   0.0000       0.132973         3.6184 
  11   0.0000       0.196109         5.3364 
  12   0.0000       0.439657        11.9637 
  13   0.0000       0.452268        12.3069 
  14   0.0000       0.554836        15.0979 
  15   0.0000       0.607432        16.5291 
  16   0.0000       0.638479        17.3739 
  17   0.0000       0.670940        18.2572 
  18   0.0000       0.893002        24.2998 
*Only the first 10 virtual orbitals were printed.

                    ********************************
                    * MULLIKEN POPULATION ANALYSIS *
                    ********************************

-----------------------
MULLIKEN ATOMIC CHARGES
-----------------------
   0 C :    0.025628
   1 O :   -0.200049
   2 H :    0.087210
   3 H :    0.087210
Sum of atomic charges:    0.0000000

--------------------------------
MULLIKEN REDUCED ORBITAL CHARGES
--------------------------------
  0 C s       :     3.238327  s :     3.238327
      pz      :     0.747956  p :     2.655338
      px      :     0.898900
      py      :     1.008482
      dz2     :     0.005249  d :     0.080707
      dxz     :     0.013794
      dyz     :     0.000000
      dx2y2   :     0.017261
      dxy     :     0.044403

  1 O s       :     3.790340  s :     3.790340
      pz      :     1.231962  p :     4.390701
      px      :     1.332617
      py      :     1.826123
      dz2     :     0.001951  d :     0.019008
      dxz     :     0.006288
      dyz     :     0.000000
      dx2y2   :     0.006294
      dxy     :     0.004475

  2 H s       :     0.912790  s :     0.912790

  3 H s       :     0.912790  s :     0.912790



                     *******************************
                     * LOEWDIN POPULATION ANALYSIS *
                     *******************************

----------------------
LOEWDIN ATOMIC CHARGES
----------------------
   0 C :   -0.033399
   1 O :   -0.128256
   2 H :    0.080828
   3 H :    0.080828

-------------------------------
LOEWDIN REDUCED ORBITAL CHARGES
-------------------------------
  0 C s       :     2.999648  s :     2.999648
      pz      :     0.751220  p :     2.856475
      px      :     1.017980
      py      :     1.087274
      dz2     :     0.011574  d :     0.177276
      dxz     :     0.022565
      dyz     :     0.000000
      dx2y2   :     0.042066
      dxy     :     0.101071

  1 O s       :     3.563304  s :     3.563304
      pz      :     1.218812  p :     4.532740
      px      :     1.491514
      py      :     1.822413
      dz2     :     0.004354  d :     0.032212
      dxz     :     0.007402
      dyz     :     0.000000
      dx2y2   :     0.013305
      dxy     :     0.007151

  2 H s       :     0.919172  s :     0.919172

  3 H s       :     0.919172  s :     0.919172



                      *****************************
                      * MAYER POPULATION ANALYSIS *
                      *****************************

  NA   - Mulliken gross atomic population
  ZA   - Total nuclear charge
  QA   - Mulliken gross atomic charge
  VA   - Mayer's total valence
  BVA  - Mayer's bonded valence
  FA   - Mayer's free valence

  ATOM       NA         ZA         QA         VA         BVA        FA
  0 C      5.9744     6.0000     0.0256     3.9262     3.9262     0.0000
  1 O      8.2000     8.0000    -0.2000     2.2130     2.2130    -0.0000
  2 H      0.9128     1.0000     0.0872     0.9265     0.9265     0.0000
  3 H      0.9128     1.0000     0.0872     0.9265     0.9265     0.0000

  Mayer bond orders larger than 0.100000
B(  0-C ,  1-O ) :   2.1404 B(  0-C ,  2-H ) :   0.8929 B(  0-C ,  3-H ) :   0.8929 


-------
TIMINGS
-------

Total SCF time: 0 days 0 hours 0 min 0 sec 

Total time                  ....       0.759 sec
Sum of individual times     ....       0.698 sec  ( 92.0%)

SCF preparation             ....       0.017 sec  (  2.3%)
Fock matrix formation       ....       0.662 sec  ( 87.2%)
  Startup                   ....       0.001 sec  (  0.1% of F)
  Split-RI-J                ....       0.030 sec  (  4.5% of F)
  Chain of spheres X        ....       0.422 sec  ( 63.8% of F)
  XC integration            ....       0.246 sec  ( 37.1% of F)
    Basis function eval.    ....       0.087 sec  ( 35.3% of XC)
    Density eval.           ....       0.033 sec  ( 13.3% of XC)
    XC-Functional eval.     ....       0.037 sec  ( 15.0% of XC)
    XC-Potential eval.      ....       0.038 sec  ( 15.5% of XC)
Diagonalization             ....       0.000 sec  (  0.0%)
Density matrix formation    ....       0.004 sec  (  0.5%)
Total Energy calculation    ....       0.003 sec  (  0.4%)
Population analysis         ....       0.001 sec  (  0.2%)
Orbital Transformation      ....       0.001 sec  (  0.1%)
Orbital Orthonormalization  ....       0.000 sec  (  0.0%)
DIIS solution               ....       0.006 sec  (  0.8%)
SOSCF solution              ....       0.004 sec  (  0.5%)
Finished LeanSCF after   0.8 sec

Maximum memory used throughout the entire LEANSCF-calculation: 5.5 MB

-------------------------   --------------------
FINAL SINGLE POINT ENERGY      -114.411282991431
-------------------------   --------------------

------------------------------------------------------------------------------
                         ORCA SCF GRADIENT CALCULATION
------------------------------------------------------------------------------

Nuc. rep. gradient        (SHARK) ... done (  0.0 sec)
HCore & Overlap gradient  (SHARK) ... done (  0.0 sec)
Split-RIJ-J gradient      (SHARK) ... done (  0.0 sec)
done (  0.3 sec)
XC gradient                       ... done (  0.1 sec)

------------------
CARTESIAN GRADIENT
------------------

   1   C   :   -0.014499983    0.000000015   -0.000000011
   2   O   :    0.003395705    0.000000000    0.000000015
   3   H   :    0.005552142   -0.006974221   -0.000000008
   4   H   :    0.005552135    0.006974206    0.000000004

Difference to translation invariance:
           :    0.0000000001   -0.0000000000   -0.0000000000

Difference to rotation invariance:
           :   -0.0000000225   -0.0000000385    0.0000000050

Norm of the Cartesian gradient     ...    0.0195118455
RMS gradient                       ...    0.0056325846
MAX gradient                       ...    0.0144999828

-------
TIMINGS
-------

Total SCF gradient time     ....        0.417 sec

Densities                   ....       0.000 sec  (  0.0%)
One electron gradient       ....       0.001 sec  (  0.3%)
RI-J Coulomb gradient       ....       0.034 sec  (  8.2%)
COSX gradient               ....       0.300 sec  ( 71.9%)
XC gradient                 ....       0.082 sec  ( 19.6%)

Maximum memory used throughout the entire SCFGRAD-calculation: 6.9 MB
------------------------------------------------------------------------------
                         ORCA GEOMETRY RELAXATION STEP
------------------------------------------------------------------------------

Reading the OPT-File                    .... done
Getting information on internals        .... done
Copying old internal coords+grads       .... done
Making the new internal coordinates     .... (2022 redundants) done
Validating the new internal coordinates .... (2022 redundants) done
Calculating the B-matrix                .... done
Calculating the G,G- and P matrices     .... done
Transforming gradient to internals      .... done
Projecting the internal gradient        .... done
Number of atoms                         ....   4
Number of internal coordinates          ....   7
Current Energy                          ....  -114.411282991 Eh
Current gradient norm                   ....     0.019511845 Eh/bohr
Maximum allowed component of the step   ....  0.300
Current trust radius                    ....  0.300
Evaluating the initial hessian          ....  (Almloef) done
Projecting the Hessian                  .... done
Forming the augmented Hessian           .... done
Diagonalizing the augmented Hessian     .... done
Last element of RFO vector              ....  0.999295399
Lowest eigenvalues of augmented Hessian:
 -0.000483671  0.113050103  0.317864286  0.337678172  0.338142331
Length of the computed step             ....  0.037559193
The final length of the internal step   ....  0.037559193
Converting the step to Cartesian space:
 Initial RMS(Int)=    0.0141960404
Transforming coordinates:
 Iter   0:  RMS(Cart)=    0.0093550774 RMS(Int)=    0.0141950753
done
Storing new coordinates                 .... done

                                .--------------------.
          ----------------------|Geometry convergence|-------------------------
          Item                value                   Tolerance       Converged
          ---------------------------------------------------------------------
          RMS gradient        0.0049483276            0.0001000000      NO
          MAX gradient        0.0088569442            0.0003000000      NO
          RMS step            0.0141960404            0.0020000000      NO
          MAX step            0.0261914358            0.0040000000      NO
          -------------------------------------------------------------------------
          ........................................................
          Max(Bonds)      0.0139      Max(Angles)    0.25
          Max(Dihed)        0.00      Max(Improp)    0.00
          ---------------------------------------------------------------------

The optimization has not yet converged - more geometry cycles are needed


    ---------------------------------------------------------------------------
                         Redundant Internal Coordinates
                            (Angstroem and degrees)

        Definition                    Value    dE/dq     Step     New-Value
    ----------------------------------------------------------------------------
     1. B(O   1,C   0)                1.2029  0.003396 -0.0016    1.2013   
     2. B(H   2,C   0)                1.1075 -0.008857  0.0139    1.1214   
     3. B(H   3,C   0)                1.1075 -0.008857  0.0139    1.1214   
     4. A(O   1,C   0,H   3)          122.02 -0.000705    0.13    122.14   
     5. A(H   2,C   0,H   3)          115.97  0.001410   -0.25    115.71   
     6. A(O   1,C   0,H   2)          122.02 -0.000705    0.13    122.14   
     7. I(O   1,H   3,H   2,C   0)      0.00 -0.000000    0.00      0.00   
    ----------------------------------------------------------------------------

Geometry step timings:
Preparation and reading OPT file:      0.000 s ( 0.455 %)
Internal coordinates            :      0.003 s (75.135 %)
B/P matrices and projection     :      0.000 s ( 2.077 %)
Hessian update/contruction      :      0.000 s (11.238 %)
Making the step                 :      0.000 s ( 1.195 %)
Converting the step to Cartesian:      0.000 s ( 0.370 %)
Storing new data                :      0.000 s ( 5.690 %)
Checking convergence            :      0.000 s ( 1.024 %)
Final printing                  :      0.000 s ( 2.817 %)
Total time                      :      0.004 s

Time for energy+gradient        :      1.598 s
Time for complete geometry iter :      1.659 s

         *************************************************************
         *                GEOMETRY OPTIMIZATION CYCLE   2            *
         *************************************************************
---------------------------------
CARTESIAN COORDINATES (ANGSTROEM)
---------------------------------
  C      0.005129   -0.000000    0.000000
  O      1.206415   -0.000000   -0.000000
  H     -0.591470    0.949483   -0.000000
  H     -0.591470   -0.949483   -0.000000

----------------------------
CARTESIAN COORDINATES (A.U.)
----------------------------
  NO LB      ZA    FRAG     MASS         X           Y           Z
   0 C     6.0000    0    12.011    0.009693   -0.000000    0.000000
   1 O     8.0000    0    15.999    2.279794   -0.000000   -0.000000
   2 H     1.0000    0     1.008   -1.117716    1.794262   -0.000000
   3 H     1.0000    0     1.008   -1.117716   -1.794262   -0.000000

--------------------------------
INTERNAL COORDINATES (ANGSTROEM)
--------------------------------
 C      0   0   0     0.000000000000     0.00000000     0.00000000
 O      1   0   0     1.201285787057     0.00000000     0.00000000
 H      1   2   0     1.121359910883   122.14284617     0.00000000
 H      1   2   3     1.121359885950   122.14284641   179.99999488

---------------------------
INTERNAL COORDINATES (A.U.)
---------------------------
 C      0   0   0     0.000000000000     0.00000000     0.00000000
 O      1   0   0     2.270101146109     0.00000000     0.00000000
 H      1   2   0     2.119063129127   122.14284617     0.00000000
 H      1   2   3     2.119063082011   122.14284641   179.99999488

------------------------------------------------------------------------------
                   ___                                                        
                  /   \      - P O W E R E D   B Y -                         
                 /     \                                                     
                 |  |  |   _    _      __       _____    __    __             
                 |  |  |  | |  | |    /  \     |  _  \  |  |  /  |          
                  \  \/   | |  | |   /    \    | | | |  |  | /  /          
                 / \  \   | |__| |  /  /\  \   | |_| |  |  |/  /          
                |  |  |   |  __  | /  /__\  \  |    /   |      \           
                |  |  |   | |  | | |   __   |  |    \   |  |\   \          
                \     /   | |  | | |  |  |  |  | |\  \  |  | \   \       
                 \___/    |_|  |_| |__|  |__|  |_| \__\ |__|  \__/        
                                                                              
                      - O R C A' S   B I G   F R I E N D -                    
                                      &                                       
                       - I N T E G R A L  F E E D E R -                       
                                                                              
 v1 FN, 2020, v2 2021, v3 2022-2024                                           
------------------------------------------------------------------------------


----------------------
SHARK INTEGRAL PACKAGE
----------------------

Number of atoms                             ...      4
Number of basis functions                   ...     32
Number of shells                            ...     16
Maximum angular momentum                    ...      2
Integral batch strategy                     ... SHARK/LIBINT Hybrid
RI-J (if used) integral strategy            ... SPLIT-RIJ (Revised 2003 algorithm where possible)
Printlevel                                  ...      1
Contraction scheme used                     ... SEGMENTED contraction
Prescreening option                         ... SCHWARTZ
   Thresh                                   ... 2.500e-11
   Tcut                                     ... 2.500e-12
   Tpresel                                  ... 2.500e-12 
Coulomb Range Separation                    ... NOT USED
Exchange Range Separation                   ... NOT USED
Multipole approximations                    ... NOT USED
Finite Nucleus Model                        ... NOT USED
CABS basis                                  ... NOT available
Auxiliary Coulomb fitting basis             ... AVAILABLE
   # of basis functions in Aux-J            ...    120
   # of shells in Aux-J                     ...     40
   Maximum angular momentum in Aux-J        ...      4
Auxiliary J/K fitting basis                 ... NOT available
Auxiliary Correlation fitting basis         ... NOT available
Auxiliary 'external' fitting basis          ... NOT available

Checking pre-screening integrals            ... done (  0.0 sec) Dimension = 16
   => SHARK Basis and OBASIS are compatible. Storing Pre-screening
Shell pair information
Shell pair cut-off parameter TPreSel        ...   2.5e-12
Total number of shell pairs                 ...       136
Shell pairs after pre-screening             ...       136
Total number of primitive shell pairs       ...       560
Primitive shell pairs kept                  ...       508
          la=0 lb=0:     55 shell pairs
          la=1 lb=0:     40 shell pairs
          la=1 lb=1:     10 shell pairs
          la=2 lb=0:     20 shell pairs
          la=2 lb=1:      8 shell pairs
          la=2 lb=2:      3 shell pairs

Checking whether 4 symmetric matrices of dimension 32 fit in memory
:Max Core in MB      =   4096.00
 MB in use           =      3.31
 MB left             =   4092.69
 MB needed           =      0.02
 Data fit in memory  = YES
Calculating RI/J V-Matrix + Cholesky decomp.... done (  0.0 sec)
Calculating Nuclear repulsion               ... done (  0.0 sec) ENN=     31.250265887860 Eh

Diagonalization of the overlap matrix:
Smallest eigenvalue                        ... 1.988e-02
Time for diagonalization                   ...    0.000 sec
Threshold for overlap eigenvalues          ... 1.000e-07
Number of eigenvalues below threshold      ... 0
Time for construction of square roots      ...    0.000 sec
Total time needed                          ...    0.000 sec

-------------------
DFT GRID GENERATION
-------------------

General Integration Accuracy     IntAcc      ... 4.388
Radial Grid Type                 RadialGrid  ... OptM3 with GC (2021)
Angular Grid (max. ang.)         AngularGrid ... 4 (Lebedev-302)
Angular grid pruning method      GridPruning ... 4 (adaptive)
Weight generation scheme         WeightScheme... mBecke (2022)
Basis function cutoff            BFCut       ... 1.0000e-11
Integration weight cutoff        WCut        ... 1.0000e-14
Partially contracted basis set               ... off
Rotationally invariant grid construction     ... off
Angular grids for H and He will be reduced by one unit

Total number of grid points                  ...    18835
Total number of batches                      ...      297
Average number of points per batch           ...       63
Average number of grid points per atom       ...     4709

--------------------
COSX GRID GENERATION
--------------------

GRIDX 1
-------
General Integration Accuracy     IntAcc      ... 3.816
Radial Grid Type                 RadialGrid  ... OptM3 with GC (2021)
Angular Grid (max. ang.)         AngularGrid ... 1 (Lebedev-50)
Angular grid pruning method      GridPruning ... 4 (adaptive)
Weight generation scheme         WeightScheme... mBecke (2022)
Basis function cutoff            BFCut       ... 1.0000e-11
Integration weight cutoff        WCut        ... 1.0000e-14
Partially contracted basis set               ... on
Rotationally invariant grid construction     ... off
Angular grids for H and He will be reduced by one unit

Total number of grid points                  ...     2416
Total number of batches                      ...       22
Average number of points per batch           ...      109
Average number of grid points per atom       ...      604
UseSFitting                                  ... on

GRIDX 2
-------
General Integration Accuracy     IntAcc      ... 4.020
Radial Grid Type                 RadialGrid  ... OptM3 with GC (2021)
Angular Grid (max. ang.)         AngularGrid ... 2 (Lebedev-110)
Angular grid pruning method      GridPruning ... 4 (adaptive)
Weight generation scheme         WeightScheme... mBecke (2022)
Basis function cutoff            BFCut       ... 1.0000e-11
Integration weight cutoff        WCut        ... 1.0000e-14
Partially contracted basis set               ... on
Rotationally invariant grid construction     ... off
Angular grids for H and He will be reduced by one unit

Total number of grid points                  ...     5362
Total number of batches                      ...       43
Average number of points per batch           ...      124
Average number of grid points per atom       ...     1340
UseSFitting                                  ... on

GRIDX 3
-------
General Integration Accuracy     IntAcc      ... 4.338
Radial Grid Type                 RadialGrid  ... OptM3 with GC (2021)
Angular Grid (max. ang.)         AngularGrid ... 3 (Lebedev-194)
Angular grid pruning method      GridPruning ... 4 (adaptive)
Weight generation scheme         WeightScheme... mBecke (2022)
Basis function cutoff            BFCut       ... 1.0000e-11
Integration weight cutoff        WCut        ... 1.0000e-14
Partially contracted basis set               ... on
Rotationally invariant grid construction     ... off
Angular grids for H and He will be reduced by one unit

Total number of grid points                  ...    11891
Total number of batches                      ...       94
Average number of points per batch           ...      126
Average number of grid points per atom       ...     2973
UseSFitting                                  ... on
Grids setup in   0.1 sec
Initializing property integral containers    ... done (  0.0 sec)

SHARK setup successfully completed in   0.1 seconds

Maximum memory used throughout the entire STARTUP-calculation: 9.3 MB
Occupation numbers will be reassigned to an Aufbau configuration
             **** ENERGY FILE WAS UPDATED (MO.en.tmp) ****
Finished Guess after   0.0 sec
Maximum memory used throughout the entire GUESS-calculation: 5.6 MB
----------------------------------------D-I-I-S--------------------------------------------
Iteration    Energy (Eh)           Delta-E    RMSDP     MaxDP     DIISErr   Damp  Time(sec)
-------------------------------------------------------------------------------------------
               ***  Starting incremental Fock matrix formation  ***
    1    -114.4115104189421999     0.00e+00  1.92e-04  1.59e-03  4.82e-03  0.700   0.1
                              *** Initializing SOSCF ***
---------------------------------------S-O-S-C-F--------------------------------------
Iteration    Energy (Eh)           Delta-E    RMSDP     MaxDP     MaxGrad    Time(sec)
--------------------------------------------------------------------------------------
    2    -114.4115302756274133    -1.99e-05  5.14e-04  4.34e-03  3.14e-03     0.0
               *** Restarting incremental Fock matrix formation ***
    3    -114.4115658788369814    -3.56e-05  3.92e-04  3.51e-03  1.10e-03     0.1
    4    -114.4115489169070514     1.70e-05  2.63e-04  2.57e-03  2.57e-03     0.1
    5    -114.4115719216868428    -2.30e-05  6.56e-05  5.28e-04  1.57e-04     0.1
    6    -114.4115719259429653    -4.26e-09  3.09e-05  2.89e-04  1.40e-04     0.1
                 **** Energy Check signals convergence ****

               *****************************************************
               *                     SUCCESS                       *
               *           SCF CONVERGED AFTER   6 CYCLES          *
               *****************************************************

Recomputing exchange energy using gridx3       ... done (    0.068 sec)
Old exchange energy                            :     -2.808424148 Eh
New exchange energy                            :     -2.808363443 Eh
Exchange energy change after final integration :      0.000060705 Eh
Total energy after final integration           :   -114.411511393 Eh
             **** ENERGY FILE WAS UPDATED (MO.en.tmp) ****

----------------
TOTAL SCF ENERGY
----------------

Total Energy       :       -114.41151139336191 Eh           -3113.29550 eV

Components:
Nuclear Repulsion  :         31.25026588786033 Eh             850.36297 eV
Electronic Energy  :       -145.66183798626264 Eh           -3963.66012 eV
One Electron Energy:       -217.29364650865838 Eh           -5912.86073 eV
Two Electron Energy:         71.63180852239576 Eh            1949.20061 eV

Virial components:
Potential Energy   :       -227.92842172185092 Eh           -6202.24767 eV
Kinetic Energy     :        113.51691032848902 Eh            3088.95217 eV
Virial Ratio       :          2.00788077355421

DFT components:
N(Alpha)           :        7.999999358054 electrons
N(Beta)            :        7.999999358054 electrons
N(Total)           :       15.999998716107 electrons
E(X)               :      -11.185957292926 Eh       
E(C)               :       -0.697379416593 Eh       
E(XC)              :      -11.883336709519 Eh       

---------------
SCF CONVERGENCE
---------------

  Last Energy change         ...    4.2561e-09  Tolerance :   1.0000e-08
  Last MAX-Density change    ...    2.8851e-04  Tolerance :   1.0000e-07
  Last RMS-Density change    ...    3.0945e-05  Tolerance :   5.0000e-09
  Last DIIS Error            ...    3.1383e-03  Tolerance :   5.0000e-07
  Last Orbital Gradient      ...    1.3951e-04  Tolerance :   1.0000e-05
  Last Orbital Rotation      ...    9.4904e-05  Tolerance :   1.0000e-05


Total SCF time: 0 days 0 hours 0 min 0 sec 
Finished LeanSCF after   0.5 sec

Maximum memory used throughout the entire LEANSCF-calculation: 5.6 MB

-------------------------   --------------------
FINAL SINGLE POINT ENERGY      -114.411511393362
-------------------------   --------------------

------------------------------------------------------------------------------
                         ORCA SCF GRADIENT CALCULATION
------------------------------------------------------------------------------

Nuc. rep. gradient        (SHARK) ... done (  0.0 sec)
HCore & Overlap gradient  (SHARK) ... done (  0.0 sec)
Split-RIJ-J gradient      (SHARK) ... done (  0.0 sec)
done (  0.3 sec)
XC gradient                       ... done (  0.1 sec)

------------------
CARTESIAN GRADIENT
------------------

   1   C   :   -0.005140556   -0.000000012    0.000000019
   2   O   :    0.002834261   -0.000000007   -0.000000014
   3   H   :    0.001153150    0.000004552   -0.000000004
   4   H   :    0.001153146   -0.000004533   -0.000000002

Difference to translation invariance:
           :    0.0000000001   -0.0000000000   -0.0000000000

Difference to rotation invariance:
           :   -0.0000000036    0.0000000250   -0.0000000452

Norm of the Cartesian gradient     ...    0.0060924456
RMS gradient                       ...    0.0017587376
MAX gradient                       ...    0.0051405562

-------
TIMINGS
-------

Total SCF gradient time     ....        0.410 sec

Densities                   ....       0.000 sec  (  0.0%)
One electron gradient       ....       0.001 sec  (  0.3%)
RI-J Coulomb gradient       ....       0.027 sec  (  6.5%)
COSX gradient               ....       0.302 sec  ( 73.8%)
XC gradient                 ....       0.079 sec  ( 19.3%)

Maximum memory used throughout the entire SCFGRAD-calculation: 6.9 MB
------------------------------------------------------------------------------
                         ORCA GEOMETRY RELAXATION STEP
------------------------------------------------------------------------------

Reading the OPT-File                    .... done
Getting information on internals        .... done
Copying old internal coords+grads       .... done
Making the new internal coordinates     .... (2022 redundants) done
Validating the new internal coordinates .... (2022 redundants) done
Calculating the B-matrix                .... done
Calculating the G,G- and P matrices     .... done
Transforming gradient to internals      .... done
Projecting the internal gradient        .... done
Number of atoms                         ....   4
Number of internal coordinates          ....   7
Current Energy                          ....  -114.411511393 Eh
Current gradient norm                   ....     0.006092446 Eh/bohr
Maximum allowed component of the step   ....  0.300
Current trust radius                    ....  0.300
Updating the Hessian (BFGS)             .... done
Forming the augmented Hessian           .... done
Diagonalizing the augmented Hessian     .... done
Last element of RFO vector              ....  0.999968486
Lowest eigenvalues of augmented Hessian:
 -0.000022254  0.113050103  0.271114228  0.337678172  0.360922966
Length of the computed step             ....  0.007939229
The final length of the internal step   ....  0.007939229
Converting the step to Cartesian space:
 Initial RMS(Int)=    0.0030007466
Transforming coordinates:
 Iter   0:  RMS(Cart)=    0.0014541181 RMS(Int)=    0.0030001319
done
Storing new coordinates                 .... done
The predicted energy change is          ....    -0.000011128
Previously predicted energy change      ....    -0.000242177
Actually observed energy change         ....    -0.000228402
Ratio of predicted to observed change   ....     0.943120610
New trust radius                        ....     0.450000000

                                .--------------------.
          ----------------------|Geometry convergence|-------------------------
          Item                value                   Tolerance       Converged
          ---------------------------------------------------------------------
          Energy change      -0.0002284019            0.0000050000      NO
          RMS gradient        0.0012897697            0.0001000000      NO
          MAX gradient        0.0028342607            0.0003000000      NO
          RMS step            0.0030007466            0.0020000000      NO
          MAX step            0.0049996843            0.0040000000      NO
          -------------------------------------------------------------------------
          ........................................................
          Max(Bonds)      0.0016      Max(Angles)    0.29
          Max(Dihed)        0.00      Max(Improp)    0.00
          ---------------------------------------------------------------------

The optimization has not yet converged - more geometry cycles are needed


    ---------------------------------------------------------------------------
                         Redundant Internal Coordinates
                            (Angstroem and degrees)

        Definition                    Value    dE/dq     Step     New-Value
    ----------------------------------------------------------------------------
     1. B(O   1,C   0)                1.2013  0.002834 -0.0016    1.1997   
     2. B(H   2,C   0)                1.1214 -0.000610  0.0015    1.1229   
     3. B(H   3,C   0)                1.1214 -0.000610  0.0015    1.1229   
     4. A(O   1,C   0,H   3)          122.14 -0.000691    0.14    122.29   
     5. A(H   2,C   0,H   3)          115.71  0.001383   -0.29    115.43   
     6. A(O   1,C   0,H   2)          122.14 -0.000691    0.14    122.29   
     7. I(O   1,H   3,H   2,C   0)      0.00  0.000000   -0.00     -0.00   
    ----------------------------------------------------------------------------

Geometry step timings:
Preparation and reading OPT file:      0.000 s ( 4.555 %)
Internal coordinates            :      0.000 s ( 4.121 %)
B/P matrices and projection     :      0.000 s (11.714 %)
Hessian update/contruction      :      0.000 s (40.347 %)
Making the step                 :      0.000 s ( 6.941 %)
Converting the step to Cartesian:      0.000 s ( 2.820 %)
Storing new data                :      0.000 s ( 7.375 %)
Checking convergence            :      0.000 s ( 7.158 %)
Final printing                  :      0.000 s (14.967 %)
Total time                      :      0.000 s

Time for energy+gradient        :      1.125 s
Time for complete geometry iter :      1.164 s

         *************************************************************
         *                GEOMETRY OPTIMIZATION CYCLE   3            *
         *************************************************************
---------------------------------
CARTESIAN COORDINATES (ANGSTROEM)
---------------------------------
  C      0.007115   -0.000000   -0.000000
  O      1.206843    0.000000    0.000000
  H     -0.592677    0.949288    0.000000
  H     -0.592677   -0.949288    0.000000

----------------------------
CARTESIAN COORDINATES (A.U.)
----------------------------
  NO LB      ZA    FRAG     MASS         X           Y           Z
   0 C     6.0000    0    12.011    0.013445   -0.000000   -0.000000
   1 O     8.0000    0    15.999    2.280603    0.000000    0.000000
   2 H     1.0000    0     1.008   -1.119997    1.793894    0.000000
   3 H     1.0000    0     1.008   -1.119997   -1.793894    0.000000

--------------------------------
INTERNAL COORDINATES (ANGSTROEM)
--------------------------------
 C      0   0   0     0.000000000000     0.00000000     0.00000000
 O      1   0   0     1.199728162745     0.00000000     0.00000000
 H      1   2   0     1.122896883333   122.28607654     0.00000000
 H      1   2   3     1.122896882327   122.28607684   180.00000505

---------------------------
INTERNAL COORDINATES (A.U.)
---------------------------
 C      0   0   0     0.000000000000     0.00000000     0.00000000
 O      1   0   0     2.267157662740     0.00000000     0.00000000
 H      1   2   0     2.121967586133   122.28607654     0.00000000
 H      1   2   3     2.121967584231   122.28607684   180.00000505

------------------------------------------------------------------------------
                   ___                                                        
                  /   \      - P O W E R E D   B Y -                         
                 /     \                                                     
                 |  |  |   _    _      __       _____    __    __             
                 |  |  |  | |  | |    /  \     |  _  \  |  |  /  |          
                  \  \/   | |  | |   /    \    | | | |  |  | /  /          
                 / \  \   | |__| |  /  /\  \   | |_| |  |  |/  /          
                |  |  |   |  __  | /  /__\  \  |    /   |      \           
                |  |  |   | |  | | |   __   |  |    \   |  |\   \          
                \     /   | |  | | |  |  |  |  | |\  \  |  | \   \       
                 \___/    |_|  |_| |__|  |__|  |_| \__\ |__|  \__/        
                                                                              
                      - O R C A' S   B I G   F R I E N D -                    
                                      &                                       
                       - I N T E G R A L  F E E D E R -                       
                                                                              
 v1 FN, 2020, v2 2021, v3 2022-2024                                           
------------------------------------------------------------------------------


----------------------
SHARK INTEGRAL PACKAGE
----------------------

Number of atoms                             ...      4
Number of basis functions                   ...     32
Number of shells                            ...     16
Maximum angular momentum                    ...      2
Integral batch strategy                     ... SHARK/LIBINT Hybrid
RI-J (if used) integral strategy            ... SPLIT-RIJ (Revised 2003 algorithm where possible)
Printlevel                                  ...      1
Contraction scheme used                     ... SEGMENTED contraction
Prescreening option                         ... SCHWARTZ
   Thresh                                   ... 2.500e-11
   Tcut                                     ... 2.500e-12
   Tpresel                                  ... 2.500e-12 
Coulomb Range Separation                    ... NOT USED
Exchange Range Separation                   ... NOT USED
Multipole approximations                    ... NOT USED
Finite Nucleus Model                        ... NOT USED
CABS basis                                  ... NOT available
Auxiliary Coulomb fitting basis             ... AVAILABLE
   # of basis functions in Aux-J            ...    120
   # of shells in Aux-J                     ...     40
   Maximum angular momentum in Aux-J        ...      4
Auxiliary J/K fitting basis                 ... NOT available
Auxiliary Correlation fitting basis         ... NOT available
Auxiliary 'external' fitting basis          ... NOT available

Checking pre-screening integrals            ... done (  0.0 sec) Dimension = 16
   => SHARK Basis and OBASIS are compatible. Storing Pre-screening
Shell pair information
Shell pair cut-off parameter TPreSel        ...   2.5e-12
Total number of shell pairs                 ...       136
Shell pairs after pre-screening             ...       136
Total number of primitive shell pairs       ...       560
Primitive shell pairs kept                  ...       508
          la=0 lb=0:     55 shell pairs
          la=1 lb=0:     40 shell pairs
          la=1 lb=1:     10 shell pairs
          la=2 lb=0:     20 shell pairs
          la=2 lb=1:      8 shell pairs
          la=2 lb=2:      3 shell pairs

Checking whether 4 symmetric matrices of dimension 32 fit in memory
:Max Core in MB      =   4096.00
 MB in use           =      3.31
 MB left             =   4092.69
 MB needed           =      0.02
 Data fit in memory  = YES
Calculating RI/J V-Matrix + Cholesky decomp.... done (  0.0 sec)
Calculating Nuclear repulsion               ... done (  0.0 sec) ENN=     31.267250803411 Eh

Diagonalization of the overlap matrix:
Smallest eigenvalue                        ... 1.989e-02
Time for diagonalization                   ...    0.000 sec
Threshold for overlap eigenvalues          ... 1.000e-07
Number of eigenvalues below threshold      ... 0
Time for construction of square roots      ...    0.000 sec
Total time needed                          ...    0.000 sec

-------------------
DFT GRID GENERATION
-------------------

General Integration Accuracy     IntAcc      ... 4.388
Radial Grid Type                 RadialGrid  ... OptM3 with GC (2021)
Angular Grid (max. ang.)         AngularGrid ... 4 (Lebedev-302)
Angular grid pruning method      GridPruning ... 4 (adaptive)
Weight generation scheme         WeightScheme... mBecke (2022)
Basis function cutoff            BFCut       ... 1.0000e-11
Integration weight cutoff        WCut        ... 1.0000e-14
Partially contracted basis set               ... off
Rotationally invariant grid construction     ... off
Angular grids for H and He will be reduced by one unit

Total number of grid points                  ...    18835
Total number of batches                      ...      296
Average number of points per batch           ...       63
Average number of grid points per atom       ...     4709

--------------------
COSX GRID GENERATION
--------------------

GRIDX 1
-------
General Integration Accuracy     IntAcc      ... 3.816
Radial Grid Type                 RadialGrid  ... OptM3 with GC (2021)
Angular Grid (max. ang.)         AngularGrid ... 1 (Lebedev-50)
Angular grid pruning method      GridPruning ... 4 (adaptive)
Weight generation scheme         WeightScheme... mBecke (2022)
Basis function cutoff            BFCut       ... 1.0000e-11
Integration weight cutoff        WCut        ... 1.0000e-14
Partially contracted basis set               ... on
Rotationally invariant grid construction     ... off
Angular grids for H and He will be reduced by one unit

Total number of grid points                  ...     2416
Total number of batches                      ...       22
Average number of points per batch           ...      109
Average number of grid points per atom       ...      604
UseSFitting                                  ... on

GRIDX 2
-------
General Integration Accuracy     IntAcc      ... 4.020
Radial Grid Type                 RadialGrid  ... OptM3 with GC (2021)
Angular Grid (max. ang.)         AngularGrid ... 2 (Lebedev-110)
Angular grid pruning method      GridPruning ... 4 (adaptive)
Weight generation scheme         WeightScheme... mBecke (2022)
Basis function cutoff            BFCut       ... 1.0000e-11
Integration weight cutoff        WCut        ... 1.0000e-14
Partially contracted basis set               ... on
Rotationally invariant grid construction     ... off
Angular grids for H and He will be reduced by one unit

Total number of grid points                  ...     5362
Total number of batches                      ...       44
Average number of points per batch           ...      121
Average number of grid points per atom       ...     1340
UseSFitting                                  ... on

GRIDX 3
-------
General Integration Accuracy     IntAcc      ... 4.338
Radial Grid Type                 RadialGrid  ... OptM3 with GC (2021)
Angular Grid (max. ang.)         AngularGrid ... 3 (Lebedev-194)
Angular grid pruning method      GridPruning ... 4 (adaptive)
Weight generation scheme         WeightScheme... mBecke (2022)
Basis function cutoff            BFCut       ... 1.0000e-11
Integration weight cutoff        WCut        ... 1.0000e-14
Partially contracted basis set               ... on
Rotationally invariant grid construction     ... off
Angular grids for H and He will be reduced by one unit

Total number of grid points                  ...    11891
Total number of batches                      ...       94
Average number of points per batch           ...      126
Average number of grid points per atom       ...     2973
UseSFitting                                  ... on
Grids setup in   0.1 sec
Initializing property integral containers    ... done (  0.0 sec)

SHARK setup successfully completed in   0.1 seconds

Maximum memory used throughout the entire STARTUP-calculation: 9.3 MB
Occupation numbers will be reassigned to an Aufbau configuration
             **** ENERGY FILE WAS UPDATED (MO.en.tmp) ****
Finished Guess after   0.0 sec
Maximum memory used throughout the entire GUESS-calculation: 5.6 MB
----------------------------------------D-I-I-S--------------------------------------------
[...]
   Full preconditioner red. dimension   ....   250
 SOSCF                 CNVSOSCF           .... on
   Start iteration     SOSCFMaxIt         ....   150
   Startup grad/error  SOSCFStart         ....  0.003300
   Hessian update      SOSCFHessUp        .... L-BFGS
   Autom. constraints  SOSCFAutoConstrain .... off
 Level Shifting         CNVShift        .... on
   Level shift para.    LevelShift      ....    0.2500
   Turn off err/grad.   ShiftErr        ....    0.0010
 Zerner damping         CNVZerner       .... off
 Static damping         CNVDamp         .... on
   Fraction old density DampFac         ....    0.7000
   Max. Damping (<1)    DampMax         ....    0.9800
   Min. Damping (>=0)   DampMin         ....    0.0000
   Turn off err/grad.   DampErr         ....    0.1000

SCF Procedure:
 Maximum # iterations   MaxIter         ....   125
 SCF integral mode      SCFMode         .... Direct
   Integral package                     .... SHARK and LIBINT hybrid scheme
 Reset frequency        DirectResetFreq ....    20
 Integral Threshold     Thresh          ....  2.500e-11 Eh
 Primitive CutOff       TCut            ....  2.500e-12 Eh

Convergence Tolerance:
 Convergence Check Mode ConvCheckMode   .... Total+1el-Energy
 Convergence forced     ConvForced      .... 0
 Energy Change          TolE            ....  1.000e-08 Eh
 1-El. energy change                    ....  1.000e-05 Eh
 Orbital Gradient       TolG            ....  1.000e-05
 Orbital Rotation angle TolX            ....  1.000e-05
 DIIS Error             TolErr          ....  5.000e-07

---------------------
INITIAL GUESS: MOREAD
---------------------
Guess MOs are being read from file: MO.gbw
Input Geometry matches current geometry (good)
Input basis set matches current basis set (good)
Occupation numbers will be reassigned to an Aufbau configuration
MOs were renormalized
MOs were reorthogonalized (Cholesky)
                      ------------------
                      INITIAL GUESS DONE (   0.0 sec)
                      ------------------
             **** ENERGY FILE WAS UPDATED (MO.en.tmp) ****
Finished Guess after   0.0 sec
Maximum memory used throughout the entire GUESS-calculation: 5.6 MB

-------------------------------------------------------------------------------------------
                                      ORCA LEAN-SCF
                              memory conserving SCF solver
-------------------------------------------------------------------------------------------

----------------------------------------D-I-I-S--------------------------------------------
Iteration    Energy (Eh)           Delta-E    RMSDP     MaxDP     DIISErr   Damp  Time(sec)
-------------------------------------------------------------------------------------------
               ***  Starting incremental Fock matrix formation  ***
                              *** Initializing SOSCF ***
---------------------------------------S-O-S-C-F--------------------------------------
Iteration    Energy (Eh)           Delta-E    RMSDP     MaxDP     MaxGrad    Time(sec)
--------------------------------------------------------------------------------------
    1    -114.4115910971667205     0.00e+00  6.86e-06  5.14e-05  8.37e-06     0.1
               *** Restarting incremental Fock matrix formation ***
    2    -114.4115911025198642    -5.35e-09  8.87e-06  7.79e-05  2.23e-05     0.1
    3    -114.4115910957885518     6.73e-09  5.84e-06  5.81e-05  5.64e-05     0.1
                 **** Energy Check signals convergence ****

               *****************************************************
               *                     SUCCESS                       *
               *           SCF CONVERGED AFTER   3 CYCLES          *
               *****************************************************

Recomputing exchange energy using gridx3       ... done (    0.118 sec)
Old exchange energy                            :     -2.808575634 Eh
New exchange energy                            :     -2.808558669 Eh
Exchange energy change after final integration :      0.000016965 Eh
Total energy after final integration           :   -114.411574141 Eh
             **** ENERGY FILE WAS UPDATED (MO.en.tmp) ****

----------------
TOTAL SCF ENERGY
----------------

Total Energy       :       -114.41157414076575 Eh           -3113.29721 eV

Components:
Nuclear Repulsion  :         31.27494230749911 Eh             851.03445 eV
Electronic Energy  :       -145.68653341362690 Eh           -3964.33212 eV
One Electron Energy:       -217.33605753331634 Eh           -5914.01479 eV
Two Electron Energy:         71.64952411968943 Eh            1949.68267 eV

Virial components:
Potential Energy   :       -227.93151036728506 Eh           -6202.33172 eV
Kinetic Energy     :        113.51993622651931 Eh            3089.03451 eV
Virial Ratio       :          2.00785446102143

DFT components:
N(Alpha)           :        7.999999440746 electrons
N(Beta)            :        7.999999440746 electrons
N(Total)           :       15.999998881493 electrons
E(X)               :      -11.186330018657 Eh       
E(C)               :       -0.697396436679 Eh       
E(XC)              :      -11.883726455337 Eh       

---------------
SCF CONVERGENCE
---------------

  Last Energy change         ...   -6.7313e-09  Tolerance :   1.0000e-08
  Last MAX-Density change    ...    5.8054e-05  Tolerance :   1.0000e-07
  Last RMS-Density change    ...    5.8406e-06  Tolerance :   5.0000e-09
  Last DIIS Error            ...    5.0375e-05  Tolerance :   5.0000e-07
  Last Orbital Gradient      ...    5.6368e-05  Tolerance :   1.0000e-05
  Last Orbital Rotation      ...    4.8679e-05  Tolerance :   1.0000e-05


----------------
ORBITAL ENERGIES
----------------

  NO   OCC          E(Eh)            E(eV) 
   0   2.0000     -19.153864      -521.2031 
   1   2.0000     -10.284466      -279.8545 
   2   2.0000      -1.054219       -28.6868 
   3   2.0000      -0.627129       -17.0651 
   4   2.0000      -0.497004       -13.5242 
   5   2.0000      -0.452568       -12.3150 
   6   2.0000      -0.406878       -11.0717 
   7   2.0000      -0.271884        -7.3983 
   8   0.0000      -0.045349        -1.2340 
   9   0.0000       0.065917         1.7937 
  10   0.0000       0.131789         3.5862 
  11   0.0000       0.195698         5.3252 
  12   0.0000       0.443541        12.0694 
  13   0.0000       0.451383        12.2828 
  14   0.0000       0.549501        14.9527 
  15   0.0000       0.599960        16.3257 
  16   0.0000       0.628853        17.1119 
  17   0.0000       0.672999        18.3132 
  18   0.0000       0.891434        24.2571 
*Only the first 10 virtual orbitals were printed.

                    ********************************
                    * MULLIKEN POPULATION ANALYSIS *
                    ********************************

-----------------------
MULLIKEN ATOMIC CHARGES
-----------------------
   0 C :    0.019890
   1 O :   -0.193771
   2 H :    0.086941
   3 H :    0.086941
Sum of atomic charges:    0.0000000

--------------------------------
MULLIKEN REDUCED ORBITAL CHARGES
--------------------------------
  0 C s       :     3.246601  s :     3.246601
      pz      :     0.744204  p :     2.652493
      px      :     0.900107
      py      :     1.008183
      dz2     :     0.005179  d :     0.081016
      dxz     :     0.014122
      dyz     :     0.000000
      dx2y2   :     0.017158
      dxy     :     0.044557

  1 O s       :     3.787535  s :     3.787535
      pz      :     1.235325  p :     4.387021
      px      :     1.332660
      py      :     1.819036
      dz2     :     0.001966  d :     0.019214
      dxz     :     0.006349
      dyz     :     0.000000
      dx2y2   :     0.006341
      dxy     :     0.004558

  2 H s       :     0.913059  s :     0.913059

  3 H s       :     0.913059  s :     0.913059



                     *******************************
                     * LOEWDIN POPULATION ANALYSIS *
                     *******************************

----------------------
LOEWDIN ATOMIC CHARGES
----------------------
   0 C :   -0.033283
   1 O :   -0.123951
   2 H :    0.078617
   3 H :    0.078617

-------------------------------
LOEWDIN REDUCED ORBITAL CHARGES
-------------------------------
  0 C s       :     3.004710  s :     3.004710
      pz      :     0.747818  p :     2.850889
      px      :     1.019360
      py      :     1.083711
      dz2     :     0.011519  d :     0.177684
      dxz     :     0.023077
      dyz     :     0.000000
      dx2y2   :     0.041865
      dxy     :     0.101223

  1 O s       :     3.561000  s :     3.561000
      pz      :     1.221632  p :     4.530386
      px      :     1.493187
      py      :     1.815566
      dz2     :     0.004393  d :     0.032565
      dxz     :     0.007472
      dyz     :     0.000000
      dx2y2   :     0.013430
      dxy     :     0.007269

  2 H s       :     0.921383  s :     0.921383

  3 H s       :     0.921383  s :     0.921383



                      *****************************
                      * MAYER POPULATION ANALYSIS *
                      *****************************

  NA   - Mulliken gross atomic population
  ZA   - Total nuclear charge
  QA   - Mulliken gross atomic charge
  VA   - Mayer's total valence
  BVA  - Mayer's bonded valence
  FA   - Mayer's free valence

  ATOM       NA         ZA         QA         VA         BVA        FA
  0 C      5.9801     6.0000     0.0199     3.9189     3.9189    -0.0000
  1 O      8.1938     8.0000    -0.1938     2.2222     2.2222     0.0000
  2 H      0.9131     1.0000     0.0869     0.9270     0.9270     0.0000
  3 H      0.9131     1.0000     0.0869     0.9270     0.9270    -0.0000

  Mayer bond orders larger than 0.100000
B(  0-C ,  1-O ) :   2.1439 B(  0-C ,  2-H ) :   0.8875 B(  0-C ,  3-H ) :   0.8875 


-------
TIMINGS
-------

Total SCF time: 0 days 0 hours 0 min 0 sec 

Total time                  ....       0.547 sec
Sum of individual times     ....       0.448 sec  ( 81.9%)

SCF preparation             ....       0.033 sec  (  6.0%)
Fock matrix formation       ....       0.399 sec  ( 73.0%)
  Startup                   ....       0.001 sec  (  0.2% of F)
  Split-RI-J                ....       0.015 sec  (  3.7% of F)
  Chain of spheres X        ....       0.350 sec  ( 87.6% of F)
  XC integration            ....       0.117 sec  ( 29.4% of F)
    Basis function eval.    ....       0.047 sec  ( 39.9% of XC)
    Density eval.           ....       0.017 sec  ( 14.9% of XC)
    XC-Functional eval.     ....       0.017 sec  ( 14.6% of XC)
    XC-Potential eval.      ....       0.019 sec  ( 16.4% of XC)
Diagonalization             ....       0.000 sec  (  0.0%)
Density matrix formation    ....       0.001 sec  (  0.2%)
Total Energy calculation    ....       0.001 sec  (  0.1%)
Population analysis         ....       0.010 sec  (  1.9%)
Orbital Transformation      ....       0.001 sec  (  0.1%)
Orbital Orthonormalization  ....       0.000 sec  (  0.0%)
DIIS solution               ....       0.001 sec  (  0.1%)
SOSCF solution              ....       0.002 sec  (  0.4%)
Finished LeanSCF after   0.6 sec

Maximum memory used throughout the entire LEANSCF-calculation: 5.7 MB

-------------------------   --------------------
FINAL SINGLE POINT ENERGY      -114.411574140766
-------------------------   --------------------

                                *** OPTIMIZATION RUN DONE ***


------------------------------------------------------------------------------
                              ORCA PROPERTY CALCULATIONS
------------------------------------------------------------------------------

GBWName                                 ... MO.gbw
Number of atoms                         ...      4
Number of basis functions               ...     32
Max core memory                         ...   4096 MB

Electric properties:
Dipole moment                           ... YES
Quadrupole moment                       ...  NO
Static polarizability (Dipole/Dipole)   ...  NO
Static polarizability (Dipole/Quad.)    ...  NO
Static polarizability (Quad./Quad.)     ...  NO
Static polarizability (Velocity)        ...  NO
Static hyperpolarizability              ...  NO

Atomic electric properties:
Dipole moment                           ...  NO
Quadrupole moment                       ...  NO
Static polarizability                   ...  NO

Choice of electric origin               ... Center of mass
Position of electric origin             ...     1.147775     0.000000    -0.000000

General magnetic properties:
Magnetizability                         ...  NO

EPR properties:
g-Tensor (aka g-matrix)                 ...  NO
Zero-Field splitting spin-orbit         ...  NO
Zero-field splitting spin-spin          ...  NO
Hyperfine couplings                     ...  NO (   0 nuclei)
Quadrupole couplings                    ...  NO (   0 nuclei)
Contact density                         ...  NO (   0 nuclei)

NMR properties:
Chemical shifts                         ...  NO (   0 nuclei)
Spin-rotation constants                 ...  NO (   0 nuclei)
Spin-spin couplings                     ...  NO (   0 nuclei,    0 pairs)

Choice of magnetic origin               ... GIAO
Position of magnetic origin             ...     0.000000     0.000000     0.000000

Properties with geometric perturbations:
SCF Hessian                             ...  NO
IR spectrum                             ...  NO
VCD spectrum                            ...  NO
X-ray spectroscopy properties:
SCF XES/XAS/RIXS spectra                ...  NO

SCF SOC stabilization energy            ...  NO
Diagonal Born-Oppenheimer correction    ...  NO

-------------
DIPOLE MOMENT
-------------

Method             : SCF
Type of density    : Electron Density
Multiplicity       :   1
Irrep              :   0
Energy             :  -114.4115741407657509 Eh
Basis              : AO
                                X                 Y                 Z
Electronic contribution:      1.413271471       0.000000142      -0.000000046
Nuclear contribution   :     -2.245679046      -0.000000065       0.000000029
                        -----------------------------------------
Total Dipole Moment    :     -0.832407575       0.000000077      -0.000000017
                        -----------------------------------------
Magnitude (a.u.)       :      0.832407575
Magnitude (Debye)      :      2.115811910



--------------------
Rotational spectrum 
--------------------
 
Rotational constants in cm-1:             9.319349             1.298219             1.139484 
Rotational constants in MHz :        279387.041416         38919.619711         34160.885499 

Dipole components along the rotational axes: 
x,y,z [a.u.] :     0.832408     0.000000     0.000000 
x,y,z [Debye]:     2.115812     0.000000     0.000000 

 

Dipole moment calculation done in   0.0 sec 

Maximum memory used throughout the entire PROP-calculation: 3.6 MB

--------------------------------
SUGGESTED CITATIONS FOR THIS RUN
--------------------------------

Below you find a list of papers that are relevant to this ORCA run
We neither can nor want to force you to cite these papers, but we appreciate if you do
You receive ORCA, which is the product of decades of hard work by many enthusiastic individuals, for free
The only thing we kindly ask in return is that you cite our papers,
We deeply appreciate it, if you show your appreciation for ORCA by not just citing the generic ORCA reference.

Please note that relegating all ORCA citations to the supporting information does *not* help us.
SI sections are not indexed - citations you put there will not count into any citation statistics
But we need these citations in order to attract the funding resources that allow us to do what we are doing

Therefore, if you are a happy ORCA user, please consider citing a few of the papers listed below in the main body of your paper

In addition to the list printed below, the program has created the file MO.bibtex that contains the list in bibtex format
You can import this file easily into all common literature databanks and citation aid programs


List of essential papers. We consider these as the minimum necessary citations

  1. Neese, F.
     Software update: the ORCA program system, version 6.0
     WIRES Comput. Molec. Sci. 2025 15(1), e70019
     doi.org/10.1002/wcms.7019

List of papers to cite with high priority. The work reported in these papers was absolutely
necessary for this run to complete.
Our perspective: the developers of density functionals and basis sets usually get cited in chemistry papers
Good! But without the algorithms to do something with them, the functionals or basis sets would not do anything.
Hence, in our opinion, the algorithm design and method developments papers are equally worthy of getting cited

  1. Neese, F.
     An improvement of the resolution of the identity approximation for the formation of the Coulomb matrix
     J. Comp. Chem. 2003 24(14), 1740-1747
     doi.org/10.1002/jcc.10318
  2. Neese, F.; Wennmohs, F.; Hansen, A.; Becker, U.
     Efficient, approximate and parallel Hartree-Fock and hybrid DFT calculations. A 'chain-of-spheres' algorithm for the Hartree-Fock exchange
     Chem. Phys. 2009 356(1-3), 98-109
     doi.org/10.1016/j.chemphys.2008.10.036
  3. Helmich-Paris, B.; de Souza, B.; Neese, F.; Izsák, R.
     An improved chain of spheres for exchange algorithm
     J. Chem. Phys. 2021 155(10), 104109
     doi.org/10.1063/5.0058766
  4. Neese, F.
     The SHARK Integral Generation and Digestion System
     J. Comp. Chem. 2022 44(3), 381
     doi.org/10.1002/jcc.26942

List of suggested additional citations. These are papers that are important in the 'surrounding' of 
of this run, or papers that preceded the highly important papers. If you like your results we are grateful for a citation.

  1. Izsak, R.; Neese, F.
     An overlap fitted chain of spheres exchange method
     J. Chem. Phys. 2011 135 , 144105
     doi.org/10.1063/1.3646921
  2. Izsak, R.; Hansen, A.; Neese, F.
     The resolution of identity and chain of spheres approximations for the LPNO-CCSD singles Fock term
     Molec. Phys. 2012 110 , 2413-2417
     doi.org/10.1080/00268976.2012.687466
  3. Neese, F.
     The ORCA program system
     WIRES Comput. Molec. Sci. 2012 2(1), 73-78
     doi.org/10.1002/wcms.81
  4. Izsak, R.; Neese, F.; Klopper, W.
     Robust fitting techniques in the chain of spheres approximation to the Fock exchange: The role of the complementary space
     J. Chem. Phys. 2013 139 , 
     doi.org/10.1063/1.4819264
  5. Neese, F.
     Software update: the ORCA program system, version 4.0
     WIRES Comput. Molec. Sci. 2018 8(1), 1-6
     doi.org/10.1002/wcms.1327
  6. Neese, F.; Wennmohs, F.; Becker, U.; Riplinger, C.
     The ORCA quantum chemistry program package
     J. Chem. Phys. 2020 152(22), 224108
     doi.org/10.1063/5.0004608
  7. Neese, F.
     Software update: The ORCA program system—Version 5.0
     WIRES Comput. Molec. Sci. 2022 12(1), e1606
     doi.org/10.1002/wcms.1606

List of optional additional citations

  1. Neese, F.
     Approximate second-order SCF convergence for spin unrestricted wavefunctions
     Chem. Phys. Lett. 2000 325(1-3), 93-98
     doi.org/10.1016/s0009-2614(00)00662-x

Timings for individual modules:

Sum of individual times          ...        7.430 sec (=   0.124 min)
Startup calculation              ...        0.834 sec (=   0.014 min)  11.2 %
SCF iterations                   ...        3.770 sec (=   0.063 min)  50.7 %
Property calculations            ...        0.142 sec (=   0.002 min)   1.9 %
SCF Gradient evaluation          ...        2.668 sec (=   0.044 min)  35.9 %
Geometry relaxation              ...        0.017 sec (=   0.000 min)   0.2 %
                             ****ORCA TERMINATED NORMALLY****
TOTAL RUN TIME: 0 days 0 hours 0 minutes 7 seconds 853 msec
